variables = x y Den P T Ma u v E H
zone i=197 and j=30
0 0 1.47107 1.39824e+10 82390 0.0219217 820.525 -0 2.37655e+10 3.32704e+10 33.7107 -283.103
1.27961e-05 0.000798264 1.47098 1.39813e+10 82389 0.0246183 5.12816 0 2.37661e+10 3.32708e+10 425.223 -1518.22
5.11713e-05 0.00159571 1.46993 1.39677e+10 82367.4 0.0319134 9.20634 0 2.37627e+10 3.3265e+10 892.269 -2993.61
0.000115086 0.00239151 1.46862 1.39515e+10 82345 0.0413919 9.64837 0 2.37608e+10 3.32606e+10 1268.89 -4527.87
0.000204475 0.00318486 1.467 1.39306e+10 82312.8 0.0517983 11.387 0 2.3758e+10 3.3254e+10 1767.18 -5973.63
0.000319246 0.00397493 1.46516 1.39075e+10 82279.4 0.0625886 13.6774 0 2.37566e+10 3.32487e+10 2240.37 -7442.71
0.000459281 0.00476092 1.46364 1.38885e+10 82252.4 0.0736059 9.37971 -0 2.37588e+10 3.32478e+10 2837.77 -8807.95
0.000624436 0.00554202 1.46205 1.38685e+10 82223.1 0.0846409 10.0821 -0 2.37619e+10 3.32476e+10 3480.03 -10146.4
0.000814542 0.00631742 1.46064 1.38542e+10 82218 0.0956226 2.78752 -0 2.37736e+10 3.32586e+10 3912.81 -11331.1
0.0010294 0.00708634 1.45931 1.38373e+10 82192.3 0.106603 1.96795 -0 2.37809e+10 3.32629e+10 4485.51 -12562.4
0.0012688 0.00784797 1.45781 1.38199e+10 82172.8 0.116813 -8.5875 -0 2.37903e+10 3.32702e+10 5647.47 -13605.8
0.00153248 0.00860153 1.4557 1.3794e+10 82138.1 0.128538 -8.88752 -0 2.37995e+10 3.32754e+10 6322 -14503.7
0.00182018 0.00934626 1.45259 1.37586e+10 82102.6 0.139482 -6.49509 0 2.38085e+10 3.32803e+10 6932.37 -15452.8
0.00213161 0.0100814 1.44916 1.37135e+10 82027.2 0.150784 -10.1609 0 2.38085e+10 3.32716e+10 8233.56 -16350.1
0.00246643 0.0108061 1.44424 1.36593e+10 81981.5 0.162165 4.19335 0 2.38187e+10 3.32765e+10 8675.27 -16874.2
0.00282431 0.0115198 1.44049 1.35991e+10 81833.1 0.173293 -13.3107 0 2.38004e+10 3.32411e+10 10843.9 -18217.6
0.00320489 0.0122216 1.43518 1.35454e+10 81811.8 0.183575 0.0444172 0 2.38182e+10 3.32564e+10 11879.6 -17661.3
0.00360776 0.0129109 1.43064 1.34819e+10 81686 0.198104 4.72345 0 2.38188e+10 3.32425e+10 11893.6 -19098
0.00403252 0.0135869 1.42858 1.34476e+10 81595.6 0.203016 -25.6057 0 2.3805e+10 3.32182e+10 15464.3 -19187.5
0.00447872 0.0142489 1.42197 1.33903e+10 81624.6 0.218911 8.40029 -0 2.38605e+10 3.32771e+10 14552.7 -18163.3
0.00494592 0.0148963 1.42258 1.33642e+10 81431.6 0.221815 -21.0833 0 2.38119e+10 3.32062e+10 17057.2 -20640.4
0.00543362 0.0155284 1.41506 1.33107e+10 81538.1 0.231438 -8.62897 -0 2.38749e+10 3.32815e+10 19296.6 -17277.6
0.00594134 0.0161445 1.41337 1.32574e+10 81309.9 0.246539 18.5167 0 2.38513e+10 3.32316e+10 18510.4 -20192.8
0.00646854 0.0167441 1.4074 1.3202e+10 81315.1 0.247592 -26.4865 0 2.38565e+10 3.32374e+10 23921.3 -18364.6
0.00701468 0.0173264 1.40029 1.31171e+10 81201.2 0.272704 54.5968 -0 2.39075e+10 3.32753e+10 21527.6 -16766.6
0.00757922 0.0178909 1.39976 1.3084e+10 81026.3 0.265157 2.07463 0 2.38309e+10 3.31784e+10 24834.9 -20287.1
0.00816155 0.0184371 1.39156 1.30129e+10 81058.9 0.279102 -45.3862 0 2.38945e+10 3.32459e+10 28949.6 -16814.1
0.00876109 0.0189643 1.39016 1.29881e+10 80986.2 0.282973 7.82532 0 2.3886e+10 3.32289e+10 27710.7 -17909.5
0.00937722 0.019472 1.38262 1.2934e+10 81087.4 0.288 36.4477 -0 2.39367e+10 3.32913e+10 29658.4 -12669.6
0.0100093 0.0199597 1.38442 1.28964e+10 80748.6 0.303959 53.9035 0 2.38935e+10 3.3209e+10 29551.6 -17586.5
0.0106567 0.0204269 1.37846 1.28484e+10 80796.6 0.296336 -106.122 0 2.38764e+10 3.31975e+10 37350.4 -19269.3
0.0113187 0.0208731 1.37231 1.27949e+10 80820.1 0.319027 32.3311 -0 2.39748e+10 3.32986e+10 35716 -8677.24
0.0119947 0.0212979 1.37278 1.27763e+10 80673.9 0.311224 140.232 -0 2.39011e+10 3.32081e+10 32515.7 -12695
0.012684 0.0217007 1.36861 1.27294e+10 80622.4 0.31074 -41.2023 0 2.38837e+10 3.31847e+10 39545.5 -15781.8
0.0133858 0.0220813 1.36707 1.27091e+10 80584.7 0.316497 -81.5118 0 2.38948e+10 3.31914e+10 42042.4 -16228.2
0.0140995 0.0224392 1.36055 1.26708e+10 80726.4 0.319017 0.206174 -0 2.39479e+10 3.32609e+10 42535.6 -4046.69
0.0148242 0.022774 1.36193 1.26407e+10 80454 0.344702 207.738 -0 2.39762e+10 3.32578e+10 38237.1 -2044.93
0.0155594 0.0230854 1.36093 1.26233e+10 80402.5 0.316992 32.4432 0 2.38495e+10 3.31251e+10 40840.7 -20841.7
0.0163041 0.0233731 1.36106 1.26574e+10 80611.1 0.308087 -153.368 0 2.38719e+10 3.31715e+10 47864.4 -14971.8
0.0170577 0.0236368 1.35879 1.26161e+10 80481.3 0.319434 11.6849 -0 2.38767e+10 3.31614e+10 46290.1 -1693.12
0.0178193 0.0238762 1.35922 1.26285e+10 80534.6 0.318862 78.7686 -0 2.389e+10 3.31809e+10 45132.3 1583.41
0.0185882 0.0240911 1.36055 1.26314e+10 80474.4 0.320707 120.708 0 2.38795e+10 3.31635e+10 44366.6 -8907.77
0.0193636 0.0242812 1.35829 1.26269e+10 80579.1 0.291549 -24.3432 0 2.37945e+10 3.30905e+10 46146.2 -16512.1
0.0201447 0.0244463 1.36339 1.26956e+10 80715.8 0.289294 -36.8638 -0 2.3826e+10 3.31378e+10 47773.5 -1698.97
0.0209307 0.0245864 1.36332 1.26791e+10 80614.8 0.286294 50.1392 -0 2.37856e+10 3.30857e+10 46487.7 -1320.41
0.0217208 0.0247011 1.36574 1.27353e+10 80829.3 0.270603 25.119 0 2.37901e+10 3.3115e+10 46935.4 -3785.91
0.0225141 0.0247905 1.36591 1.27195e+10 80718.4 0.266808 64.4147 -0 2.37444e+10 3.30564e+10 46164.2 -2684.95
0.0233099 0.0248544 1.36756 1.27616e+10 80886.9 0.241312 39.2622 0 2.37116e+10 3.30431e+10 45851.1 -7912.72
0.0241074 0.0248928 1.36736 1.27773e+10 80998.9 0.223444 32.2634 -0 2.36877e+10 3.30321e+10 45255.4 2386.87
0.0249056 0.0249056 1.37211 1.28031e+10 80881.4 0.216467 39.7743 -0 2.36338e+10 3.29647e+10 44558 -1238.65
0.0257039 0.0248928 1.36997 1.2817e+10 81096.8 0.178843 38.4686 0 2.36038e+10 3.29595e+10 43698 -10481.9
0.0265013 0.0248544 1.37022 1.28239e+10 81125.6 0.157417 7.61089 -0 2.35602e+10 3.29192e+10 42789.7 3380.88
0.0272971 0.0247905 1.37566 1.28327e+10 80858.6 0.147761 50.7373 -0 2.34649e+10 3.27932e+10 42373.4 -968.24
0.0280905 0.0247011 1.36817 1.27638e+10 80866.6 0.10282 38.1893 0 2.33973e+10 3.27265e+10 41078.4 -22490.5
0.0288806 0.0245864 1.36356 1.27902e+10 81307.7 0.0774833 17.1405 0 2.34896e+10 3.28697e+10 38550.2 -22985.4
0.0296665 0.0244463 1.35943 1.27704e+10 81427.9 0.0847319 -31.56 0 2.35321e+10 3.2926e+10 34811.4 -11705.4
0.0304476 0.0242812 1.37116 1.28782e+10 81412.8 0.098671 -53.7181 0 2.35452e+10 3.29373e+10 33882.2 -4679.93
0.031223 0.0240911 1.37571 1.28785e+10 81143.3 0.0973027 21.77 -0 2.34657e+10 3.28268e+10 32524.3 -1016.49
0.031992 0.0238762 1.37105 1.28754e+10 81400.2 0.0909305 -75.7868 0 2.35314e+10 3.29221e+10 28727.2 -1884.92
0.0327536 0.0236368 1.37527 1.30076e+10 81985.3 0.0962365 -83.7788 0 2.37069e+10 3.31651e+10 29151.9 -800.906
0.0335072 0.0233731 1.3851 1.30151e+10 81453.8 0.0847115 24.5997 -0 2.35404e+10 3.29373e+10 31786.6 983.423
0.0342519 0.0230854 1.37977 1.29614e+10 81433.1 0.0723191 -51.0395 -0 2.35207e+10 3.29152e+10 23852.9 3006.68
0.034987 0.022774 1.36282 1.30672e+10 83115.1 0.0805605 -200.757 0 2.40157e+10 3.36042e+10 20224.2 3316
0.0357118 0.0224392 1.38496 1.32258e+10 82803.5 0.0690297 -31.4636 0 2.39166e+10 3.34692e+10 34323.9 -10091.6
0.0364254 0.0220813 1.41212 1.30909e+10 80358.7 0.0834687 60.9203 0 2.32292e+10 3.24998e+10 27216.1 -14964.1
0.0371272 0.0217007 1.42119 1.31579e+10 80249.4 0.0973118 -126.559 0 2.32089e+10 3.24669e+10 7552.17 1845.17
0.0378165 0.0212979 1.41817 1.3281e+10 81176.6 0.062487 -83.7174 -0 2.34391e+10 3.2804e+10 18175 9789.32
0.0384925 0.0208731 1.40679 1.32165e+10 81435.8 0.0399612 -51.2227 -0 2.34981e+10 3.28929e+10 27390.5 -2189.48
0.0391545 0.0204269 1.40903 1.32513e+10 81520.6 0.0443219 -41.1472 0 2.35256e+10 3.29303e+10 12813 -8482.43
0.0398019 0.0199597 1.42222 1.3294e+10 81026.9 0.0393421 -43.5952 0 2.33815e+10 3.27292e+10 7263.76 2807.52
0.040434 0.019472 1.43569 1.33382e+10 80531.8 0.0328355 -59.4181 0 2.32343e+10 3.25248e+10 11724.4 4150.86
0.0410502 0.0189643 1.4391 1.33344e+10 80317 0.0475659 -118.027 0 2.31791e+10 3.24449e+10 3841.45 -15299.3
0.0416497 0.0184371 1.44902 1.35267e+10 80912.6 0.0671533 -181.1 0 2.33676e+10 3.2702e+10 -5767.68 -28266.5
0.042232 0.0178909 1.44165 1.36105e+10 81838.3 0.107136 -31.2905 0 2.36827e+10 3.3124e+10 -2049.13 -24656.7
0.0427966 0.0173264 1.42912 1.36053e+10 82519.2 0.142333 -22.007 0 2.39356e+10 3.34554e+10 -3198.25 -10899.3
0.0433427 0.0167441 1.42742 1.3622e+10 82719.6 0.135557 -130.059 -0 2.39825e+10 3.35255e+10 -13048.8 9070.36
0.0438699 0.0161445 1.43131 1.35989e+10 82357.5 0.111561 -153.792 -0 2.38359e+10 3.3337e+10 -7999.99 21514.7
0.0443776 0.0155284 1.44718 1.37179e+10 82166.2 0.102074 10.4434 -0 2.3767e+10 3.32461e+10 6540.7 18808.7
0.0448653 0.0148963 1.44624 1.36834e+10 82012 0.0838903 75.9011 -0 2.37012e+10 3.31625e+10 12921.1 13599.7
0.0453325 0.0142489 1.44854 1.37171e+10 82083 0.0645554 46.288 -0 2.37015e+10 3.3171e+10 10608.7 13365.8
0.0457787 0.0135869 1.44531 1.36711e+10 81989.7 0.058762 56.3796 -0 2.36697e+10 3.31284e+10 6710.94 14092.2
0.0462035 0.0129109 1.44269 1.36349e+10 81922 0.0672117 24.7259 -0 2.36577e+10 3.31086e+10 4322.64 14977.3
0.0466064 0.0122216 1.44173 1.36191e+10 81881 0.0764992 34.4764 -0 2.36542e+10 3.31003e+10 2866.64 14928.2
0.0469869 0.0115198 1.43712 1.35545e+10 81755.3 0.0830712 18.2164 -0 2.3625e+10 3.30567e+10 1332.31 14436.2
0.0473448 0.0108061 1.43765 1.35625e+10 81773.3 0.0889933 27.2714 -0 2.36367e+10 3.30705e+10 -815.254 14633.9
0.0476796 0.0100814 1.43368 1.35051e+10 81652.8 0.0922275 20.9292 -0 2.36058e+10 3.30257e+10 -1345.07 14571.4
0.0479911 0.00934626 1.43512 1.35196e+10 81658.4 0.0962313 9.98893 -0 2.36123e+10 3.30328e+10 -1239.94 14128.8
0.0482788 0.00860153 1.43257 1.34913e+10 81632.4 0.0942382 10.7746 -0 2.36024e+10 3.30199e+10 -1617.34 13391.8
0.0485424 0.00784797 1.43361 1.35003e+10 81627.5 0.0934668 2.2316 -0 2.36e+10 3.30169e+10 -1290.53 12740
0.0487818 0.00708634 1.43418 1.35023e+10 81607.3 0.0886448 7.866 -0 2.35886e+10 3.30032e+10 -1991.76 11668.1
0.0489967 0.00631742 1.43425 1.35048e+10 81618.5 0.0816995 9.66508 -0 2.35838e+10 3.29997e+10 -2356.8 10825.4
0.0491868 0.00554202 1.43567 1.35222e+10 81642.9 0.0761697 5.18269 -0 2.35852e+10 3.30039e+10 -1516.66 9879.33
0.049352 0.00476092 1.43596 1.35209e+10 81618.2 0.0668861 7.76715 -0 2.35693e+10 3.29851e+10 -1735.08 8519.6
0.049492 0.00397493 1.43736 1.35398e+10 81653.3 0.0584565 6.81873 -0 2.35724e+10 3.29923e+10 -1520.56 7459.19
0.0496068 0.00318486 1.43724 1.35378e+10 81647.6 0.0488839 5.59354 -0 2.35641e+10 3.29834e+10 -909.742 6020.33
0.0496962 0.00239151 1.43841 1.355e+10 81654.8 0.0393114 6.70864 -0 2.35605e+10 3.29806e+10 -825.38 4643.33
0.0497601 0.00159571 1.4383 1.35486e+10 81653 0.02957 4.39314 -0 2.35557e+10 3.29756e+10 -574.341 3125.29
0.0497984 0.000798264 1.43878 1.35543e+10 81659.6 0.0214384 6.73618 -0 2.35547e+10 3.29753e+10 -279.509 1588.4
0.0498112 1.49434e-18 1.43863 1.35522e+10 81655.6 0.0187725 3.35078 0 2.35528e+10 3.2973e+10 4.73895e-06 -0.000125873
0.0497984 -0.000798264 1.43878 1.35543e+10 81659.6 0.0214384 6.73618 0 2.35547e+10 3.29753e+10 279.509 -1588.4
0.0497601 -0.00159571 1.4383 1.35486e+10 81653 0.02957 4.39314 0 2.35557e+10 3.29756e+10 574.341 -3125.29
0.0496962 -0.00239151 1.43841 1.355e+10 81654.8 0.0393114 6.70864 0 2.35605e+10 3.29806e+10 825.38 -4643.33
0.0496068 -0.00318486 1.43724 1.35378e+10 81647.6 0.0488839 5.59354 0 2.35641e+10 3.29834e+10 909.742 -6020.33
0.049492 -0.00397493 1.43736 1.35398e+10 81653.3 0.0584565 6.81873 0 2.35724e+10 3.29923e+10 1520.56 -7459.19
0.049352 -0.00476092 1.43596 1.35209e+10 81618.2 0.0668861 7.76715 0 2.35693e+10 3.29851e+10 1735.08 -8519.6
0.0491868 -0.00554202 1.43567 1.35222e+10 81642.9 0.0761697 5.18269 0 2.35852e+10 3.30039e+10 1516.66 -9879.33
0.0489967 -0.00631742 1.43425 1.35048e+10 81618.5 0.0816995 9.66508 0 2.35838e+10 3.29997e+10 2356.8 -10825.4
0.0487818 -0.00708634 1.43418 1.35023e+10 81607.3 0.0886448 7.866 0 2.35886e+10 3.30032e+10 1991.76 -11668.1
0.0485424 -0.00784797 1.43361 1.35003e+10 81627.5 0.0934668 2.2316 0 2.36e+10 3.30169e+10 1290.53 -12740
0.0482788 -0.00860153 1.43257 1.34913e+10 81632.4 0.0942382 10.7746 0 2.36024e+10 3.30199e+10 1617.34 -13391.8
0.0479911 -0.00934626 1.43512 1.35196e+10 81658.4 0.0962313 9.98893 0 2.36123e+10 3.30328e+10 1239.94 -14128.8
0.0476796 -0.0100814 1.43368 1.35051e+10 81652.8 0.0922275 20.9292 0 2.36058e+10 3.30257e+10 1345.07 -14571.4
0.0473448 -0.0108061 1.43765 1.35625e+10 81773.3 0.0889933 27.2714 0 2.36367e+10 3.30705e+10 815.254 -14633.9
0.0469869 -0.0115198 1.43712 1.35545e+10 81755.3 0.0830712 18.2164 0 2.3625e+10 3.30567e+10 -1332.31 -14436.2
0.0466064 -0.0122216 1.44173 1.36191e+10 81881 0.0764992 34.4764 0 2.36542e+10 3.31003e+10 -2866.64 -14928.2
0.0462035 -0.0129109 1.44269 1.36349e+10 81922 0.0672117 24.7259 0 2.36577e+10 3.31086e+10 -4322.64 -14977.3
0.0457787 -0.0135869 1.44531 1.36711e+10 81989.7 0.058762 56.3796 0 2.36697e+10 3.31284e+10 -6710.95 -14092.2
0.0453325 -0.0142489 1.44854 1.37171e+10 82083 0.0645554 46.288 0 2.37015e+10 3.3171e+10 -10608.7 -13365.8
0.0448653 -0.0148963 1.44624 1.36834e+10 82012 0.0838903 75.9011 0 2.37012e+10 3.31625e+10 -12921.1 -13599.7
0.0443776 -0.0155284 1.44718 1.37179e+10 82166.2 0.102074 10.4434 0 2.3767e+10 3.32461e+10 -6540.7 -18808.7
0.0438699 -0.0161445 1.43131 1.35989e+10 82357.5 0.111561 -153.792 0 2.38359e+10 3.3337e+10 7999.99 -21514.7
0.0433427 -0.0167441 1.42742 1.3622e+10 82719.6 0.135557 -130.059 0 2.39825e+10 3.35255e+10 13048.8 -9070.36
0.0427966 -0.0173264 1.42912 1.36053e+10 82519.2 0.142333 -22.007 -0 2.39356e+10 3.34554e+10 3198.25 10899.3
0.042232 -0.0178909 1.44165 1.36105e+10 81838.3 0.107136 -31.2905 -0 2.36827e+10 3.3124e+10 2049.13 24656.7
0.0416497 -0.0184371 1.44902 1.35267e+10 80912.6 0.0671533 -181.1 -0 2.33676e+10 3.2702e+10 5767.68 28266.5
0.0410502 -0.0189643 1.4391 1.33344e+10 80317 0.0475659 -118.027 -0 2.31791e+10 3.24449e+10 -3841.45 15299.3
0.040434 -0.019472 1.43569 1.33382e+10 80531.8 0.0328355 -59.4181 -0 2.32343e+10 3.25248e+10 -11724.4 -4150.86
0.0398019 -0.0199597 1.42222 1.3294e+10 81026.9 0.0393421 -43.5952 -0 2.33815e+10 3.27292e+10 -7263.76 -2807.52
0.0391545 -0.0204269 1.40903 1.32513e+10 81520.6 0.0443219 -41.1472 -0 2.35256e+10 3.29303e+10 -12813 8482.43
0.0384925 -0.0208731 1.40679 1.32165e+10 81435.8 0.0399612 -51.2227 0 2.34981e+10 3.28929e+10 -27390.5 2189.48
0.0378165 -0.0212979 1.41817 1.3281e+10 81176.6 0.062487 -83.7174 0 2.34391e+10 3.2804e+10 -18175 -9789.32
0.0371272 -0.0217007 1.42119 1.31579e+10 80249.4 0.0973118 -126.559 -0 2.32089e+10 3.24669e+10 -7552.17 -1845.17
0.0364254 -0.0220813 1.41212 1.30909e+10 80358.7 0.0834687 60.9203 -0 2.32292e+10 3.24998e+10 -27216.1 14964.1
0.0357118 -0.0224392 1.38496 1.32258e+10 82803.5 0.0690297 -31.4636 -0 2.39166e+10 3.34692e+10 -34323.9 10091.6
0.034987 -0.022774 1.36282 1.30672e+10 83115.1 0.0805605 -200.757 -0 2.40157e+10 3.36042e+10 -20224.2 -3316
0.0342519 -0.0230854 1.37977 1.29614e+10 81433.1 0.0723191 -51.0394 0 2.35207e+10 3.29152e+10 -23852.9 -3006.68
0.0335072 -0.0233731 1.3851 1.30151e+10 81453.8 0.0847115 24.5997 0 2.35404e+10 3.29373e+10 -31786.6 -983.423
0.0327536 -0.0236368 1.37527 1.30076e+10 81985.3 0.0962365 -83.7788 -0 2.37069e+10 3.31651e+10 -29151.9 800.906
0.031992 -0.0238762 1.37105 1.28754e+10 81400.2 0.0909305 -75.7868 -0 2.35314e+10 3.29221e+10 -28727.2 1884.92
0.031223 -0.0240911 1.37571 1.28785e+10 81143.3 0.0973027 21.77 0 2.34657e+10 3.28268e+10 -32524.3 1016.49
0.0304476 -0.0242812 1.37116 1.28782e+10 81412.8 0.098671 -53.7181 -0 2.35452e+10 3.29373e+10 -33882.2 4679.93
0.0296665 -0.0244463 1.35943 1.27704e+10 81427.9 0.0847319 -31.56 -0 2.35321e+10 3.2926e+10 -34811.4 11705.4
0.0288806 -0.0245864 1.36356 1.27902e+10 81307.7 0.0774833 17.1405 -0 2.34896e+10 3.28697e+10 -38550.2 22985.4
0.0280905 -0.0247011 1.36817 1.27638e+10 80866.6 0.10282 38.1893 -0 2.33973e+10 3.27265e+10 -41078.4 22490.5
0.0272971 -0.0247905 1.37566 1.28327e+10 80858.6 0.147761 50.7373 0 2.34649e+10 3.27932e+10 -42373.4 968.24
0.0265013 -0.0248544 1.37022 1.28239e+10 81125.6 0.157417 7.61089 0 2.35602e+10 3.29192e+10 -42789.7 -3380.88
0.0257039 -0.0248928 1.36997 1.2817e+10 81096.8 0.178843 38.4686 -0 2.36038e+10 3.29595e+10 -43698 10481.9
0.0249056 -0.0249056 1.37211 1.28031e+10 80881.4 0.216467 39.7743 0 2.36338e+10 3.29647e+10 -44558 1238.65
0.0241074 -0.0248928 1.36736 1.27773e+10 80998.9 0.223444 32.2634 0 2.36877e+10 3.30321e+10 -45255.4 -2386.87
0.0233099 -0.0248544 1.36756 1.27616e+10 80886.9 0.241312 39.2622 -0 2.37116e+10 3.30431e+10 -45851.1 7912.72
0.0225141 -0.0247905 1.36591 1.27195e+10 80718.4 0.266808 64.4147 0 2.37444e+10 3.30564e+10 -46164.2 2684.95
0.0217208 -0.0247011 1.36574 1.27353e+10 80829.3 0.270603 25.119 -0 2.37901e+10 3.3115e+10 -46935.4 3785.91
0.0209307 -0.0245864 1.36332 1.26791e+10 80614.8 0.286294 50.1392 0 2.37856e+10 3.30857e+10 -46487.7 1320.41
0.0201447 -0.0244463 1.36339 1.26956e+10 80715.8 0.289294 -36.8638 0 2.3826e+10 3.31378e+10 -47773.5 1698.97
0.0193636 -0.0242812 1.35829 1.26269e+10 80579.1 0.291549 -24.3432 -0 2.37945e+10 3.30905e+10 -46146.2 16512.1
0.0185882 -0.0240911 1.36055 1.26314e+10 80474.4 0.320707 120.708 -0 2.38795e+10 3.31635e+10 -44366.6 8907.77
0.0178193 -0.0238762 1.35922 1.26285e+10 80534.6 0.318862 78.7686 0 2.389e+10 3.31809e+10 -45132.3 -1583.42
0.0170577 -0.0236368 1.35879 1.26161e+10 80481.3 0.319434 11.6849 0 2.38767e+10 3.31614e+10 -46290.1 1693.12
0.0163041 -0.0233731 1.36106 1.26574e+10 80611.1 0.308087 -153.368 -0 2.38719e+10 3.31715e+10 -47864.4 14971.8
0.0155594 -0.0230854 1.36093 1.26233e+10 80402.5 0.316992 32.4432 -0 2.38495e+10 3.31251e+10 -40840.7 20841.7
0.0148242 -0.022774 1.36193 1.26407e+10 80454 0.344702 207.738 0 2.39762e+10 3.32578e+10 -38237.1 2044.92
0.0140995 -0.0224392 1.36055 1.26708e+10 80726.4 0.319017 0.206147 0 2.39479e+10 3.32609e+10 -42535.6 4046.69
0.0133858 -0.0220813 1.36707 1.27091e+10 80584.7 0.316497 -81.5118 -0 2.38948e+10 3.31914e+10 -42042.4 16228.2
0.012684 -0.0217007 1.36861 1.27294e+10 80622.4 0.31074 -41.2022 -0 2.38837e+10 3.31847e+10 -39545.5 15781.8
0.0119947 -0.0212979 1.37278 1.27763e+10 80673.9 0.311224 140.232 0 2.39011e+10 3.32081e+10 -32515.7 12695
0.0113187 -0.0208731 1.37231 1.27949e+10 80820.1 0.319027 32.3311 0 2.39748e+10 3.32986e+10 -35716 8677.24
0.0106567 -0.0204269 1.37846 1.28484e+10 80796.6 0.296336 -106.122 -0 2.38764e+10 3.31975e+10 -37350.4 19269.3
0.0100093 -0.0199597 1.38442 1.28964e+10 80748.6 0.303959 53.9035 -0 2.38935e+10 3.3209e+10 -29551.6 17586.5
0.00937722 -0.019472 1.38262 1.2934e+10 81087.4 0.288 36.4477 0 2.39367e+10 3.32913e+10 -29658.4 12669.6
0.00876109 -0.0189643 1.39016 1.29881e+10 80986.2 0.282973 7.82531 -0 2.3886e+10 3.32289e+10 -27710.7 17909.5
0.00816155 -0.0184371 1.39156 1.30129e+10 81058.9 0.279102 -45.3862 -0 2.38945e+10 3.32459e+10 -28949.6 16814.1
0.00757922 -0.0178909 1.39976 1.3084e+10 81026.3 0.265157 2.07464 -0 2.38309e+10 3.31784e+10 -24834.9 20287.1
0.00701468 -0.0173264 1.40029 1.31171e+10 81201.2 0.272704 54.5968 0 2.39075e+10 3.32753e+10 -21527.6 16766.6
0.00646854 -0.0167441 1.4074 1.3202e+10 81315.1 0.247592 -26.4865 -0 2.38565e+10 3.32374e+10 -23921.3 18364.6
0.00594134 -0.0161445 1.41337 1.32574e+10 81309.9 0.246539 18.5167 -0 2.38513e+10 3.32316e+10 -18510.4 20192.8
0.00543362 -0.0155284 1.41506 1.33107e+10 81538.1 0.231438 -8.62897 0 2.38749e+10 3.32815e+10 -19296.6 17277.6
0.00494592 -0.0148963 1.42258 1.33642e+10 81431.6 0.221815 -21.0833 -0 2.38119e+10 3.32062e+10 -17057.2 20640.4
0.00447872 -0.0142489 1.42197 1.33903e+10 81624.6 0.218911 8.40029 0 2.38605e+10 3.32771e+10 -14552.7 18163.3
0.00403252 -0.0135869 1.42858 1.34476e+10 81595.6 0.203016 -25.6057 -0 2.3805e+10 3.32182e+10 -15464.3 19187.5
0.00360776 -0.0129109 1.43064 1.34819e+10 81686 0.198104 4.72345 -0 2.38188e+10 3.32425e+10 -11893.6 19098
0.00320489 -0.0122216 1.43518 1.35454e+10 81811.8 0.183575 0.0444158 -0 2.38182e+10 3.32564e+10 -11879.6 17661.3
0.00282431 -0.0115198 1.44049 1.35991e+10 81833.1 0.173293 -13.3107 -0 2.38004e+10 3.32411e+10 -10843.9 18217.6
0.00246643 -0.0108061 1.44424 1.36593e+10 81981.5 0.162165 4.19335 -0 2.38187e+10 3.32765e+10 -8675.27 16874.2
0.00213161 -0.0100814 1.44916 1.37135e+10 82027.2 0.150784 -10.1609 -0 2.38085e+10 3.32716e+10 -8233.56 16350.1
0.00182018 -0.00934626 1.45259 1.37586e+10 82102.6 0.139482 -6.49509 -0 2.38085e+10 3.32803e+10 -6932.37 15452.8
0.00153248 -0.00860153 1.4557 1.3794e+10 82138.1 0.128538 -8.88752 0 2.37995e+10 3.32754e+10 -6322 14503.7
0.0012688 -0.00784797 1.45781 1.38199e+10 82172.8 0.116813 -8.5875 0 2.37903e+10 3.32702e+10 -5647.47 13605.8
0.0010294 -0.00708634 1.45931 1.38373e+10 82192.3 0.106603 1.96795 0 2.37809e+10 3.32629e+10 -4485.51 12562.4
0.000814542 -0.00631742 1.46064 1.38542e+10 82218 0.0956226 2.78752 0 2.37736e+10 3.32586e+10 -3912.81 11331.1
0.000624436 -0.00554202 1.46205 1.38685e+10 82223.1 0.0846409 10.0821 0 2.37619e+10 3.32476e+10 -3480.03 10146.4
0.000459281 -0.00476092 1.46364 1.38885e+10 82252.4 0.0736059 9.37971 0 2.37588e+10 3.32478e+10 -2837.77 8807.95
0.000319246 -0.00397493 1.46516 1.39075e+10 82279.4 0.0625886 13.6774 -0 2.37566e+10 3.32487e+10 -2240.37 7442.71
0.000204475 -0.00318486 1.467 1.39306e+10 82312.8 0.0517983 11.387 -0 2.3758e+10 3.3254e+10 -1767.18 5973.63
0.000115086 -0.00239151 1.46862 1.39515e+10 82345 0.0413919 9.64837 -0 2.37608e+10 3.32606e+10 -1268.89 4527.87
5.11713e-05 -0.00159571 1.46993 1.39677e+10 82367.4 0.0319134 9.20634 -0 2.37627e+10 3.3265e+10 -892.269 2993.61
1.27961e-05 -0.000798264 1.47098 1.39813e+10 82389 0.0246183 5.12816 -0 2.37661e+10 3.32708e+10 -425.223 1518.22
0 0 1.47107 1.39824e+10 82390 0.0219217 820.525 0 2.37655e+10 3.32704e+10 -33.7107 283.103
-0.00199245 0 1.47199 1.39942e+10 82407.9 0.0286213 3234.47 0 2.37732e+10 3.32801e+10 9.14639e-06 1.01856e-05
-0.00197863 0.000862126 1.47172 1.39906e+10 82401.9 0.0306399 3264.55 0 2.37722e+10 3.32785e+10 394.932 -602.75
-0.00193718 0.00172337 1.4712 1.39836e+10 82389.9 0.0364242 3396.61 0 2.37713e+10 3.32762e+10 781.372 -1188.32
-0.00186816 0.00258283 1.47017 1.39702e+10 82368.4 0.0442852 3574.62 0 2.37693e+10 3.32717e+10 1142.02 -1783.77
-0.00177162 0.00343965 1.46911 1.3956e+10 82344.5 0.0530824 3835.5 0 2.3768e+10 3.32677e+10 1557.87 -2353.55
-0.00164766 0.00429293 1.46809 1.39427e+10 82322.8 0.0627685 4164.03 0 2.37693e+10 3.32664e+10 1981.47 -2924.38
-0.00149643 0.0051418 1.46693 1.39273e+10 82296.8 0.0725298 4569.65 0 2.37705e+10 3.32647e+10 2438.75 -3466.69
-0.00131806 0.00598538 1.46638 1.39198e+10 82283.4 0.0826121 5047.8 0 2.37771e+10 3.32697e+10 2902.09 -4008.01
-0.00111274 0.00682282 1.46521 1.39056e+10 82264.9 0.0926318 5601.6 0 2.37834e+10 3.32739e+10 3196.72 -4489.1
-0.000880695 0.00765324 1.46465 1.38978e+10 82250.3 0.102516 6109.13 0 2.3792e+10 3.32808e+10 3614.06 -4988.72
-0.000622148 0.0084758 1.46325 1.38794e+10 82220 0.112528 6763.13 0 2.37976e+10 3.32829e+10 4372.48 -5450.94
-0.000337369 0.00928965 1.46173 1.38589e+10 82183.8 0.123028 7558.67 0 2.38037e+10 3.32848e+10 4666.45 -5829.95
-2.66515e-05 0.010094 1.45927 1.38289e+10 82144.1 0.133055 8213.73 0 2.38092e+10 3.32857e+10 5064.54 -6168.88
0.000309686 0.0108879 1.45656 1.37913e+10 82073.3 0.143645 9051.18 0 2.38083e+10 3.32766e+10 5796.73 -6600.65
0.000671297 0.0116706 1.45347 1.37556e+10 82034.5 0.153647 9940.03 0 2.38167e+10 3.32806e+10 6099.72 -6796.5
0.00105781 0.0124414 1.45073 1.37111e+10 81923.5 0.163898 10691 0 2.38063e+10 3.32574e+10 7393.56 -7386.98
0.00146883 0.0131994 1.44789 1.36834e+10 81918.3 0.173769 12145.8 0 2.38267e+10 3.32772e+10 7554 -7342.13
0.00190393 0.0139438 1.44514 1.36401e+10 81814 0.183694 12639.3 0 2.38208e+10 3.32592e+10 7815.71 -7667.91
0.00236267 0.0146738 1.44433 1.36269e+10 81780.3 0.192368 13967.7 0 2.3832e+10 3.32666e+10 9578.55 -8258.68
0.00284457 0.0153888 1.44017 1.3585e+10 81763.7 0.201805 15234.4 0 2.38541e+10 3.32868e+10 8661.76 -7422.88
0.00334914 0.016088 1.44081 1.35705e+10 81639.9 0.209054 15555 0 2.38375e+10 3.32559e+10 10549.1 -8738.53
0.00387586 0.0167707 1.4353 1.35278e+10 81696.3 0.21782 17782.4 0 2.38795e+10 3.33044e+10 10867.5 -7531.37
0.00442419 0.0174361 1.43449 1.3489e+10 81508 0.228211 17743.6 0 2.38544e+10 3.32575e+10 10948.5 -8207.84
0.00499357 0.0180836 1.43004 1.34501e+10 81526.3 0.236328 19760.2 0 2.38824e+10 3.32876e+10 13364.6 -8426.32
0.00558341 0.0187125 1.42581 1.33891e+10 81396.9 0.248185 20770.6 0 2.38848e+10 3.32751e+10 11531 -6719.42
0.0061931 0.0193222 1.42587 1.33758e+10 81310.3 0.251891 21030.4 0 2.38703e+10 3.32507e+10 14317 -9203.08
0.00682202 0.019912 1.42006 1.33224e+10 81315.7 0.260122 23496 0 2.39025e+10 3.32835e+10 14977.7 -7797.27
0.00746953 0.0204814 1.42082 1.33177e+10 81243.2 0.26546 23675.2 0 2.38992e+10 3.32718e+10 14547.8 -7881
0.00813495 0.0210298 1.41494 1.32684e+10 81279.8 0.271331 25411 0 2.39308e+10 3.33076e+10 15321.2 -6264.7
0.0088176 0.0215565 1.41675 1.32538e+10 81084.2 0.280782 25255.2 0 2.39068e+10 3.3261e+10 15983.4 -8053.86
0.00951679 0.0220611 1.4118 1.32123e+10 81113.9 0.285911 27203.6 0 2.39306e+10 3.32883e+10 19330.8 -9888.16
0.0102318 0.022543 1.40904 1.31784e+10 81065.7 0.293943 29053.1 0 2.39505e+10 3.33027e+10 16361.6 -3236.65
0.0109619 0.0230017 1.40913 1.31636e+10 80967.6 0.293289 27853.7 0 2.39186e+10 3.32594e+10 17018.6 -6141.36
0.0117063 0.0234368 1.40594 1.31323e+10 80956.2 0.297892 29568.6 0 2.39311e+10 3.32706e+10 20449.1 -9920.04
0.0124642 0.0238478 1.40554 1.31237e+10 80926 0.302685 30844.8 0 2.39407e+10 3.32767e+10 20462.8 -8685.43
0.013235 0.0242343 1.40033 1.30847e+10 80987.5 0.305585 32265.7 0 2.39705e+10 3.33136e+10 19606.3 -1185.94
0.0140177 0.0245959 1.4019 1.3063e+10 80762.4 0.316454 31624.6 0 2.39512e+10 3.32683e+10 18082.3 851.957
0.0148117 0.0249323 1.39959 1.30339e+10 80715.7 0.311575 30842.3 0 2.39176e+10 3.32294e+10 21565 -13008.3
0.015616 0.025243 1.39897 1.30532e+10 80871.9 0.309716 33390.5 0 2.39537e+10 3.32834e+10 23237.3 -11276.4
0.0164298 0.0255278 1.39659 1.3009e+10 80735.2 0.31367 34007.2 0 2.39276e+10 3.32415e+10 21442 -122.78
0.0172524 0.0257863 1.39678 1.30179e+10 80779.3 0.314325 33789 0 2.39432e+10 3.32623e+10 21260 2590.31
0.0180828 0.0260184 1.39714 1.30139e+10 80733.5 0.317031 33152 0 2.39405e+10 3.32543e+10 21578.1 -4137.85
0.0189202 0.0262237 1.3947 1.29929e+10 80746.8 0.309462 33074.4 0 2.3916e+10 3.32314e+10 23202.4 -11956.2
0.0197638 0.026402 1.39785 1.30324e+10 80812.2 0.305242 33838.4 0 2.39183e+10 3.32412e+10 23174.7 -3558.7
0.0206127 0.0265533 1.39565 1.30024e+10 80753 0.305499 33340.8 0 2.39029e+10 3.3219e+10 22886.1 104.732
0.021466 0.0266772 1.39613 1.30233e+10 80856.8 0.301374 33241.3 0 2.39195e+10 3.32475e+10 23457.8 -1893
0.0223228 0.0267738 1.39559 1.30031e+10 80762.3 0.29852 32621 0 2.38806e+10 3.31978e+10 23224.9 -1154.14
0.0231823 0.0268428 1.39323 1.29973e+10 80864 0.292231 32086.4 0 2.38978e+10 3.32266e+10 23979.1 -4608.59
0.0240435 0.0268843 1.39312 1.29995e+10 80886.2 0.2811 31355.6 0 2.38666e+10 3.3198e+10 23934.8 -425.254
0.0249056 0.0268981 1.39441 1.29882e+10 80740.9 0.280702 30562.3 0 2.38279e+10 3.31425e+10 24213.5 -1035.66
0.0257677 0.0268843 1.38816 1.29484e+10 80857.7 0.26881 29725.1 0 2.38458e+10 3.3174e+10 24842.3 -4954.85
0.026629 0.0268428 1.38551 1.29225e+10 80850.1 0.257264 28790.4 0 2.38145e+10 3.31418e+10 24782.7 1227.96
0.0274885 0.0267738 1.38477 1.28774e+10 80608.6 0.257313 27941.2 0 2.3757e+10 3.30564e+10 25378.5 -1597.88
0.0283453 0.0266772 1.37352 1.27621e+10 80542 0.241793 26648.7 0 2.37357e+10 3.30274e+10 25918.1 -11591.4
0.0291986 0.0265533 1.36834 1.27586e+10 80824.7 0.228715 25084.8 -0 2.37993e+10 3.31237e+10 26109.4 -14087.4
0.0300474 0.026402 1.36735 1.27553e+10 80863.7 0.224781 23251.3 -0 2.37782e+10 3.3107e+10 24886.3 -8548.6
0.030891 0.0262237 1.37443 1.28238e+10 80877.2 0.226294 22858.3 -0 2.37656e+10 3.3096e+10 24138.4 -428.125
0.0317284 0.0260184 1.37699 1.28486e+10 80880.7 0.21919 21856.1 -0 2.37372e+10 3.3068e+10 24063.6 -3500.11
0.0325589 0.0257863 1.37726 1.28637e+10 80962.7 0.20867 20232.2 -0 2.3725e+10 3.30652e+10 21954.3 -7078.75
0.0333814 0.0255278 1.38335 1.29658e+10 81248.7 0.20712 20625.4 -0 2.37935e+10 3.31667e+10 20922.2 4308.13
0.0341953 0.025243 1.38501 1.29764e+10 81216.6 0.203014 20921.3 -0 2.3785e+10 3.31546e+10 24019.8 2285.82
0.0349996 0.0249323 1.37889 1.2908e+10 81146.9 0.186038 17622.9 -0 2.37171e+10 3.30786e+10 22425.3 -11813
0.0357935 0.0245959 1.38248 1.30065e+10 81577 0.180153 16695.1 -0 2.38047e+10 3.32159e+10 14250.3 -3830.58
0.0365763 0.0242343 1.3928 1.30909e+10 81496.5 0.199926 20868.2 -0 2.38831e+10 3.32849e+10 20993 2058.16
0.037347 0.0238478 1.39326 1.30087e+10 80942.1 0.195596 16993.9 -0 2.36945e+10 3.30324e+10 31123.5 -7744.88
0.038105 0.0234368 1.40996 1.31158e+10 80646.3 0.15307 10625.7 -0 2.34391e+10 3.27428e+10 18974.8 1507.77
0.0388494 0.0230017 1.41668 1.31615e+10 80530.4 0.140084 13884.7 -0 2.33985e+10 3.26889e+10 12775.3 11059.9
0.0395795 0.022543 1.40945 1.32194e+10 81297 0.138453 14134.3 0 2.36369e+10 3.30158e+10 24930.9 -3878.2
0.0402945 0.0220611 1.40588 1.32121e+10 81455.9 0.108019 7771.23 -0 2.36027e+10 3.29999e+10 24487.5 -6043.53
0.0409936 0.0215565 1.41146 1.32068e+10 81105 0.0868938 6169.34 -0 2.34576e+10 3.28143e+10 13275.2 3291.12
0.0416763 0.0210298 1.42014 1.33111e+10 81256.4 0.086776 6613.64 0 2.3505e+10 3.28791e+10 13339.3 -10881.8
0.0423417 0.0204814 1.43265 1.3334e+10 80689.6 0.107965 2184.98 -0 2.33733e+10 3.2682e+10 15785.3 -25033
0.0429892 0.019912 1.46149 1.35332e+10 80270.2 0.126541 -2238.08 -0 2.32776e+10 3.2538e+10 7376.02 -12580.8
0.0436181 0.0193222 1.45622 1.36035e+10 80990.2 0.11234 -958.264 -0 2.3454e+10 3.27974e+10 804.437 4596.97
0.0442278 0.0187125 1.43999 1.36334e+10 82070.2 0.0974846 586.967 -0 2.37468e+10 3.32148e+10 -70.3342 12410.6
0.0448177 0.0180836 1.4321 1.36005e+10 82319.8 0.103024 2290.07 -0 2.38227e+10 3.33195e+10 -3946.92 17517.9