variables = x y Den P T Ma u v E H
zone i=197 and j=30
0 0 1.228246179702076 101782.5240494684 288.6789480059863 0.003262985812552881 0.2094435323046565 -0.1389658418444657 207171.0965889571 290039.2754035555 42866.44100490597 -436927.1707331495
1.2844594982802e-08 8.012894392913795e-07 1.228104921887891 101770.1372218899 288.6770159925707 0.005939827063942191 -5.462284128898709e-07 -7.418527123859153e-05 207171.3757803016 290038.9999911289 189698.5645922536 -1306577.439214533
5.13651812415929e-08 1.601755499517823e-06 1.22774853291029 101738.8470718373 288.672030165072 0.01032807378661706 -2.488869884964551e-06 -6.933913187556762e-05 207171.9599429044 290038.15292209 370222.6292775942 -2342468.979530033
1.155221762700442e-07 2.400575647692044e-06 1.227184940925061 101689.3477540285 288.6640908381358 0.0148056715532617 -4.151606304070299e-06 -6.459787248092042e-05 207172.7912579982 290036.7051739934 561250.0508906076 -3362665.232643019
2.0524965441885e-07 3.196929042112651e-06 1.226416014543609 101621.8121435049 288.6532411715401 0.01927566704893182 -5.556007234452931e-06 -5.996800908514288e-05 207173.8374027941 290034.6368134965 768301.1683341234 -4359751.921448031
3.204554146387473e-07 3.989997375834481e-06 1.225444864896294 101536.5274610604 288.6395539535903 0.02371007445548303 -6.708129409171981e-06 -5.544804197610276e-05 207175.0635799343 290031.933937852 996225.7161675232 -5326541.390303349
4.610210752233677e-07 4.778965717534308e-06 1.224275771110408 101433.8892152159 288.6231322631048 0.02809221185702895 -7.616306808344575e-06 -5.103897976033167e-05 207176.4345635594 290028.5909110062 1249520.997169518 -6256127.936529769
6.268021954544096e-07 5.56302334890786e-06 1.222914082562626 101314.3910770778 288.6041041541142 0.03240879470616221 -8.286813260705017e-06 -4.673873819616148e-05 207177.9121901443 290024.6063286243 1532335.155277556 -7141963.97830473
8.176284240242637e-07 6.341364597737685e-06 1.221366201689133 101178.6236048605 288.5826235824991 0.03664791531776421 -8.727420114817974e-06 -4.254650292523365e-05 207179.4573146212 290019.9852402133 1848421.370658787 -7977915.523264923
1.033303674083484e-06 7.113189665775811e-06 1.219639513824271 101027.2664475683 288.5588653393235 0.04079834203252795 -8.944835071522661e-06 -3.846096810633526e-05 207181.0273310542 290014.7352153605 2201071.465325261 -8758324.554013558
1.273606324733283e-06 7.877705450590518e-06 1.217742383648085 100861.0882376667 288.5330262055088 0.04484920156907056 -8.946215964256155e-06 -3.448198403432912e-05 207182.5782121344 290008.8687146878 2593056.660461448 -9478057.596130872
1.53828944875599e-06 8.63412636053269e-06 1.215684094671852 100680.93978183 288.5053204806426 0.04878983476943782 -8.738132986296776e-06 -3.061009962079808e-05 207184.0625279181 290002.3998250914 3026571.01352927 -10132556.05348841
1.827081066349457e-06 9.381675121984352e-06 1.213474842105244 100487.7535135948 288.475980790167 0.05260970216327744 -8.327574043898167e-06 -2.68469600248622e-05 207185.4313369015 289995.3463825269 3503184.345868251 -10717874.79809705
2.139684424604688e-06 1.011958357805985e-05 1.211125675768871 100282.5372035229 288.4452542824639 0.05629835269213128 -7.721442360164588e-06 -2.319572048570251e-05 207186.6329343889 289987.727628713 4023799.9887169 -11230722.79242601
2.475778302439522e-06 1.084709347793895e-05 1.208648476674154 100066.3715893071 288.4134020720217 0.05984537323278857 -6.927526407185525e-06 -1.966018933252656e-05 207187.6138876183 289979.5650864129 4588623.750043772 -11668485.87696368
2.835017340674998e-06 1.156345725602088e-05 1.206055909808082 99840.40551054126 288.3806971108974 0.06324042242922193 -5.954112148209845e-06 -1.624684264456278e-05 207188.3194977381 289970.8824103923 5197135.137110492 -12029262.84463327
3.217032396915268e-06 1.226793880009845e-05 1.203361360060275 99605.84882990511 288.3474196690754 0.06647315711832144 -4.811128301529521e-06 -1.296128319072665e-05 207188.6919058876 289961.7021960923 5848077.456400591 -12311860.27231788
3.621430924866345e-06 1.295981420776313e-05 1.200578928883587 99363.97294443581 288.3138601197066 0.06953337878250136 -3.509836202120198e-06 -9.814418388209845e-06 207188.6752207165 289952.0519066795 6539443.173387324 -12515840.70229369
4.047797377703987e-06 1.363837253026372e-05 1.197723260760891 99116.09133542319 288.2803046138418 0.07241084101861436 -2.064537410806366e-06 -6.811643311621651e-06 207188.2057560516 289941.949998501 7268503.827349918 -12641462.70662127
4.495693635076105e-06 1.430291650305424e-05 1.194809594440396 98863.56932522827 288.2470514561683 0.07509568121375793 -4.929429064937096e-07 -3.970278831033625e-06 207187.2297884645 289931.4283794722 8031788.429383062 -12689766.76341043
4.964659453301085e-06 1.49527632622804e-05 1.191853367300624 98607.77571386681 288.2143656555768 0.07757792945093298 1.185400212655452e-06 -1.293420923254018e-06 207185.6689015108 289920.4847066007 8825154.271607202 -12662386.29749471
5.454212938299257e-06 1.558724504646834e-05 1.18887083458072 98350.15817508029 288.1825497193005 0.07984860120727857 2.943384012965566e-06 1.190115408888914e-06 207183.4836330309 289909.1663554533 9643722.292949874 -12561806.44252359
5.96385104077164e-06 1.620570988269471e-05 1.18587766303701 98092.09699185938 288.1518557562005 0.08189819784154144 4.754197336254151e-06 3.491037454672608e-06 207180.5987355736 289897.4704489486 10481985.09251868 -12390864.1523892
6.49305007311711e-06 1.680752225653292e-05 1.182891097530576 97835.08773069497 288.1224956155915 0.08371935109994567 6.585108025980446e-06 5.5473511091364e-06 207176.9390716766 289885.3826630883 11333286.90390265 -12152785.23837843
7.041266247556809e-06 1.739206376508716e-05 1.179931411691522 97580.94701927218 288.0948933359969 0.08530332116656748 8.484374174777543e-06 7.322730994019366e-06 207172.5790936366 289873.0991746678 12190070.20460217 -11852501.22964824
7.607936234912838e-06 1.795873375244319e-05 1.177015101076629 97331.12141321087 288.0693077895693 0.08663960402353753 1.040501513394076e-05 8.874078260667773e-06 207167.4705431388 289860.6460372125 13045146.57899414 -11495491.99066798
8.19247774346708e-06 1.850694992688289e-05 1.174157299856894 97086.91593688921 288.0459162050885 0.08771923574081904 1.227104738354967e-05 1.019052243655949e-05 207161.5357872299 289847.9964930626 13890808.83249837 -11087196.78491144
8.79429011730529e-06 1.903614895922836e-05 1.171374005495901 96849.71848585179 288.0249318638756 0.08853287113553637 1.40628267999432e-05 1.127165769698735e-05 207154.7373943423 289835.1743351864 14718800.82283274 -10633378.1164475
9.41275495353166e-06 1.954578706170075e-05 1.168680617171928 96620.83824901521 288.006483530349 0.08907265602564821 1.572024132112659e-05 1.210140423779649e-05 207147.0127817008 289822.1539439228 15520768.3227382 -10139995.0587884
1.00472367377196e-05 2.003534054669892e-05 1.166092529150565 96401.58039778439 287.9906900544882 0.08933147519352747 1.720327827126056e-05 1.267049721853652e-05 207138.3234215004 289808.9309085418 16288103.29384565 -9613239.558718242
1.069708349694576e-05 2.05043063649239e-05 1.163624458266696 96193.1744782863 287.9776122127994 0.08930376472178544 1.845436285830004e-05 1.296790370464151e-05 207128.630958154 289795.4843199602 17012197.08865826 -9059464.116088003
1.136162746973629e-05 2.095220262229602e-05 1.161290501528786 95996.78807486077 287.9672780933687 0.08898519511985555 1.942187390380212e-05 1.299100527685226e-05 207117.9142638018 289781.8011132843 17684465.44127666 -8485164.857428875
1.204018579223688e-05 2.137856907513366e-05 1.159103769723461 95813.48883805267 287.9596594222218 0.08837308654863653 2.004625388707382e-05 1.2740028700442e-05 207106.1580490941 289767.8578828371 18296521.16596455 -7896838.799306253
1.273206119990155e-05 2.178296760308474e-05 1.157076317436632 95644.24252141675 287.9546820676884 0.08746642121294342 2.027175881913479e-05 1.222140606316202e-05 207093.3611290785 289753.6321634292 18840236.64238297 -7300925.671360592
1.343654274397912e-05 2.2164982659325e-05 1.155218911658868 95489.89092336732 287.9522166452988 0.08626600980251879 2.004024508384106e-05 1.144921998230686e-05 207079.5311024222 289739.0944126217 19307918.28345799 -6703730.517452011
1.415290652206105e-05 2.252422169756048e-05 1.153540938765032 95351.14659159294 287.9520851113681 0.0847746427305819 1.929619344220868e-05 1.044423912510695e-05 207064.68934274 289724.2148948094 19692405.3476283 -6111333.031055274
1.488041642194016e-05 2.286031557539531e-05 1.152050152930851 95228.57046723705 287.9540557659229 0.08299717073046664 1.798778718153926e-05 9.234886204190218e-06 207048.8659306041 289708.95717877 19987199.49366373 -5529477.848975291
1.561832487801565e-05 2.317291893365054e-05 1.150752602413071 95122.57185200465 287.9578613956439 0.08094065797191136 1.606793404818063e-05 7.856082756330096e-06 207032.1107399905 289693.2944322241 20186575.96821985 -4963518.041512428
1.636587363946731e-05 2.346171055124401e-05 1.149652356699129 95033.38451842105 287.9631953618572 0.07861427078910554 1.349810918327421e-05 6.351756390188257e-06 207014.4851773684 289677.2000379431 20285720.74994705 -4418394.931450801
1.712229454940949e-05 2.372639367526672e-05 1.148751659849746 94961.08499135151 287.9697288660362 0.0760294501064481 1.024567785368191e-05 4.774685046449179e-06 206996.0706312853 289660.6609995696 20280956.36878092 -3898458.504521143
1.788681033422419e-05 2.396669632591652e-05 1.148050729401371 94905.57193606062 287.9770993117179 0.07320049151530651 6.286175247893766e-06 3.181575911836987e-06 206976.9586034326 289643.6647318543 20169782.27762257 -3407394.301678657
1.865863540226231e-05 2.418237157597573e-05 1.147547587327039 94866.55584495445 287.9849219855552 0.07014439007234681 1.61221189998173e-06 1.635093042517966e-06 206957.2495097567 289626.2012149302 19950887.7921939 -2948268.728175095
1.943697665109215e-05 2.437319780454559e-05 1.14723799794026 94843.56002818749 287.9928093106466 0.06688076534912564 -3.769160398015003e-06 2.031718446815489e-07 206937.0569380432 289608.2727787574 19624274.7140717 -2523499.313400832
2.02210342824657e-05 2.453897892477663e-05 1.147115424190905 94835.92019989889 288.0003813032475 0.06343177797569849 -9.833419229110518e-06 -1.042654212080052e-06 206916.5050576868 289589.894514597 19191338.62968802 -2134833.374315674
2.101000262416552e-05 2.467954458536125e-05 1.147171086393921 94842.79332946333 288.0072784074545 0.05982198339212104 -1.653762845421625e-05 -2.02920460978806e-06 206895.7270281464 289571.0963677903 18654929.41252758 -1783328.169948228
2.180307095788735e-05 2.479475034558115e-05 1.147394053289603 94863.16781231252 288.0131701316089 0.05607822482494546 -2.381992076028183e-05 -2.684582484424602e-06 206874.8608505635 289551.9214685432 18019393.4846252 -1469354.651038243
2.259942435230796e-05 2.488447782372996e-05 1.147771386679046 94895.87687154749 288.0177599026145 0.05222936946328674 -3.159809257091695e-05 -2.940707403309428e-06 206854.0419534601 289532.4201111046 17290580.16335534 -1192609.793809133
2.339824450048218e-05 2.494863481875841e-05 1.148288387690604 94939.62107231402 288.0207918959005 0.04830613279453122 -3.977136559640826e-05 -2.737098313443376e-06 206833.3987037846 289512.6472254218 16475836.63493491 -952153.8841599156
2.419871056070862e-05 2.49871554050172e-05 1.148928804233134 94992.98277926768 288.0220429896712 0.04434062503399086 -4.821952431655063e-05 -2.023291980166042e-06 206813.0371114546 289492.6447720696 15583949.15824647 -746445.4505097403
2.5e-05 2.5e-05 1.149675268894112 95054.46488341136 288.0213303570259 0.04036613137275894 -5.680805502805697e-05 -7.631023130070039e-07 206793.0397525157 289472.4428448036 14625086.32095578 -573394.4248837918
2.580128943929138e-05 2.49871554050172e-05 1.150509474971118 95122.49784418843 288.0184885482375 0.03641635978328573 -6.538742862138847e-05 1.065391851559627e-06 206773.4427434675 289452.0300661246 13610652.4218127 -430341.7571598479
2.660175549951782e-05 2.494863481875841e-05 1.151413011036444 95195.5082711679 288.013367946574 0.03252527430396453 -7.380357976494167e-05 3.463323043267907e-06 206754.2329002529 289431.3503029965 12553186.14618839 -314161.5370329171
2.740057564769204e-05 2.488447782372996e-05 1.152367913189325 95271.9735235899 288.0058615237002 0.02872574304024318 -8.189997204510746e-05 6.401934479205451e-06 206735.36416682 289410.3267758134 11466148.11256612 -221648.3270317689
2.819692904211265e-05 2.479475034558115e-05 1.153355941610523 95350.33625267902 287.9958269185183 0.02504892087489775 -8.951779658361581e-05 9.837084783026473e-06 206716.7043220639 289388.7863972937 10363622.08142666 -149415.545649325
2.898999737583448e-05 2.467954458536125e-05 1.154359727618752 95429.10966907436 287.9831177025534 0.02152434310480467 -9.650973951669251e-05 1.371229958929687e-05 206698.065911779 289366.499679474 9260058.825904928 -93720.15203181878
2.977896571753431e-05 2.453897892477663e-05 1.155363595553315 95506.95522040402 287.9676124828684 0.01817889599742448 -0.0001027436890395084 1.795789370728773e-05 206679.2326522381 289343.2154915703 8169920.569042362 -50775.68434435535
3.056302334890785e-05 2.437319780454559e-05 1.156353575970766 95582.68379813802 287.9492148412605 0.0150364826126847 -0.0001081119486554538 2.250251285557114e-05 206659.9695493592 289318.6711616914 7107326.341199129 -16938.56972745066
3.134136459773768e-05 2.418237157597574e-05 1.15731766894777 95655.29384794945 287.9279022197102 0.01211730579639898 -0.0001125350380082324 2.728049286787604e-05 206640.0678082147 289292.6514194047 6085646.347941081 11161.66628211548
3.211318966577581e-05 2.396669632591652e-05 1.158245778578034 95723.97694801909 287.903758512324 0.009437518080799625 -0.0001159698427817268 3.2244056801356e-05 206619.3795778936 289265.0324964413 5117096.623593707 36465.41808869159
3.287770545059052e-05 2.372639367526672e-05 1.159129687825974 95788.13134808888 287.8770205171683 0.007008846099827116 -0.0001184121882076283 3.737348505356008e-05 206597.8620213795 289235.8395310378 4212348.880707731 61372.75061624299
3.363412636053269e-05 2.346171055124401e-05 1.159962851505131 95847.35352022352 287.8481034163497 0.004838482497398967 -0.0001199045869731408 4.268331667653391e-05 206575.6057290089 289205.2822957062 3380176.724733186 87634.58644326704
3.438167512198435e-05 2.317291893365054e-05 1.160740226990025 95901.4283840468 287.817612972264 0.002929434370613591 -0.0001205354279379123 4.820604142168061e-05 206552.8519918919 289173.7759717101 2627179.144457269 116319.3564272883
3.511958357805985e-05 2.286031557539531e-05 1.161458008307283 95950.29745493867 287.7863155892503 0.001286068559702265 -0.0001204099300209163 5.400029935411985e-05 206529.9779391664 289141.9176922165 1957591.695623204 147858.7714563197
3.584709347793896e-05 2.252422169756048e-05 1.16211367304502 95994.04401491713 287.7550822095834 0.0006565638314133215 -0.0001196063818312693 6.010490364669052e-05 206507.460573662 289110.4344727451 1373304.048505274 182018.6413228571
3.656345725602088e-05 2.2164982659325e-05 1.162706228566908 96032.89131714162 287.7248222955672 0.001297855571070499 -0.000118204171864561 6.628341918021169e-05 206485.8315259491 289080.1190141146 873949.3219073412 217848.8160197334
3.726793880009845e-05 2.178296760308473e-05 1.163235594849244 96067.11056555281 287.6963614689588 0.002223358607450907 -0.0001160832274220425 7.187958188938082e-05 206465.5892497498 289051.7067730292 456988.8500319219 254015.6157555024
3.795981420776311e-05 2.137856907513366e-05 1.163702386511309 96096.97460872523 287.6703575387799 0.002939611473285361 -0.000112700319814113 7.577016176113505e-05 206447.1370512397 289025.7898863218 118065.8430490217 289250.6978753802
3.863837253026372e-05 2.095220262229601e-05 1.164108116866818 96122.76023078052 287.6472577422278 0.003461345518209067 -0.0001069996478849089 7.629522604124528e-05 206430.7496767344 289002.7714842183 -148562.2194002102 322594.7642020151
3.930291650305424e-05 2.05043063649239e-05 1.164454951577637 96144.71622815011 287.6272648076009 0.003808196129500819 -9.744815723167211e-05 7.130154811668676e-05 206416.5457837031 288982.828419373 -349558.8458712227 353662.5754024953
3.99527632622804e-05 2.003534054669892e-05 1.164745723123264 96163.07217996442 287.6103601543163 0.004003231447711227 -8.225396887134862e-05 5.834100120907793e-05 206404.5013737498 288965.9313596478 -492124.3800603886 382790.2838828122
4.058724504646834e-05 1.954578706170074e-05 1.164983836226135 96178.04399959045 287.596344147108 0.004073078836756004 -5.958058205846051e-05 3.518326403473271e-05 206394.4751175611 288951.8816684299 -583846.9623925094 411094.2668836572
4.120570988269471e-05 1.903614895922836e-05 1.165173154001658 96189.84440938458 287.5848956080634 0.004047766874519054 -2.826611376349764e-05 2.244998501266249e-07 206386.2472150998 288940.3673483505 -632531.6490394273 440412.5810206843
4.180752225653292e-05 1.850694992688289e-05 1.165318183215088 96198.72230402677 287.5756437010059 0.003960022369096435 1.181357710466902e-05 -4.715238756577977e-05 206379.567066503 288931.0313473138 -646209.6322869834 472946.4929042677
4.239206376508715e-05 1.795873375244319e-05 1.165424055063673 96204.97879361128 287.568220465224 0.003843048689140696 5.95191982018517e-05 -0.000106137452988958 206374.1870582867 288923.5204250339 -633087.380262079 510924.1736632773
4.295873375244319e-05 1.739206376508716e-05 1.165496414087747 96208.97158295009 287.5623011201625 0.003728027472251554 0.0001123368536032066 -0.0001746048053474225 206369.8886472255 288917.5228067793 -601193.3830312744 556323.1780470668
4.350694992688289e-05 1.680752225653292e-05 1.165541297426749 96211.1123272262 287.5576257669854 0.00364158640801432 0.000166677782094643 -0.0002494020012946407 206366.4964564286 288912.7885090995 -558014.0121767826 610580.1047504105
4.403614895922836e-05 1.620570988269471e-05 1.165564820392683 96211.84071915798 287.5539993620466 0.00360357876099994 0.0002186540801941139 -0.0003268523522181599 206363.8779837637 288909.1290406329 -510058.296637027 674462.3460565226
4.454578706170075e-05 1.558724504646834e-05 1.16557284115257 96211.59421586397 287.5512838484723 0.003625978592626947 0.0002646261434146591 -0.0004031078991651171 206361.9385871134 288906.4101286558 -462447.3147452181 748097.8859317832
4.503534054669892e-05 1.49527632622804e-05 1.165570712465443 96210.78453672107 287.5493890784227 0.003713028008650158 0.0003016829872167781 -0.0004748244552806868 206360.615877335 288904.543506187 -418663.1669326643 831072.5811330954
4.550430636492389e-05 1.430291650305424e-05 1.165563057034589 96209.77445239564 287.5482588032061 0.003862556286626043 0.0003281922320299835 -0.0005391900860629018 206359.8704431787 288903.473615227 -380539.2506586532 922530.5327255622
4.595220262229601e-05 1.363837253026371e-05 1.165553679945554 96208.866384411 287.5478581598783 0.004067795675490093 0.0003435919679280752 -0.0005938482597128147 206359.6772698695 288903.1654332441 -348524.3098408523 1021252.485220294
4.637856907513366e-05 1.295981420776312e-05 1.165545687225377 96208.31067900168 287.548169121261 0.004319193744734899 0.0003482030186476581 -0.0006370103484000245 206360.0225581599 288903.5999861091 -322098.0734534407 1125718.65327231
4.678296760308474e-05 1.226793880009845e-05 1.165541599909519 96208.31283824121 287.549183946946 0.004605849777545305 0.000342906832692641 -0.0006671633892942341 206360.8989241691 288904.7676679794 -300213.5754887579 1234138.903956183
4.716498265932501e-05 1.156345725602088e-05 1.165543469415573 96209.04164684995 287.550900994732 0.004916429581925827 0.0003289087786337574 -0.0006831269985257404 206362.3022178858 288906.6638574335 -281667.7434544356 1344481.161743603
4.752422169756048e-05 1.084709347793895e-05 1.165552978237818 96210.63638177811 287.5533214159275 0.005239674087249554 0.0003076103784456496 -0.0006839867409761391 206364.229002611 288909.2854482671 -265345.5857699675 1454513.305614676
4.786031557539531e-05 1.011958357805984e-05 1.165571495757441 96213.21025483106 287.5564456680931 0.005564642004898588 0.0002805151974738518 -0.0006692148060583603 206366.6739817478 288912.6272752306 -250344.3403600079 1561859.22754981
4.817291893365054e-05 9.381675121984354e-06 1.165600101640039 96216.85141088738 287.5602707210526 0.005880844073936868 0.0002492032783303344 -0.0006387267811275299 206369.628049529 288916.6793627144 -236005.0370185844 1664074.087670477
4.846171055124401e-05 8.63412636053269e-06 1.165639580388663 96221.62149344728 287.5647871117557 0.006178371822321801 0.000215299530875096 -0.0005929789357624893 206373.0763927029 288921.4241810035 -221895.7066404397 1758728.7949375
4.872639367526672e-05 7.877705450590514e-06 1.165690412875504 96227.55444464186 287.5699774489801 0.006448038081073527 0.0001804332704438416 -0.0005329772070049588 206376.9977794404 288926.8355059446 -207771.9302034582 1843498.208379398
4.896669632591652e-05 7.113189665775805e-06 1.165752753212811 96234.65382286397 287.5758141096138 0.006681561662952877 0.0001461897983222604 -0.0004603293296802091 206381.363413759 288932.8766120647 -193538.5333106203 1916245.171951951
4.918237157597574e-05 6.341364597737688e-06 1.165826432746407 96242.89333871912 287.5822598659263 0.006871727809834285 0.0001140110452715892 -0.0003771412154329745 206386.1379517275 288939.5014688404 -179208.6752245698 1975096.079813178
4.937319780454559e-05 5.563023348907855e-06 1.165910940925762 96252.21452688736 287.5892656637966 0.007012577875063836 8.518193764583959e-05 -0.0002860200549765768 206391.2785294453 288946.6531308948 -164876.7793778571 2018502.901610906
4.953897892477663e-05 4.778965717534307e-06 1.1660054723313 96262.53174750572 287.5967739848278 0.007099497818346514 6.070541259919904e-05 -0.0001898911737191478 206396.7376962577 288954.2676363424 -150673.5257444284 2045290.726123844
4.967954458536126e-05 3.989997375834483e-06 1.166108898367294 96273.72907893424 287.6047165676496 0.007129359911243303 4.14249376655268e-05 -9.193046096778179e-05 206402.4622766727 288962.2722145821 -136740.393231598 2054686.683237853
4.979475034558114e-05 3.19692904211265e-06 1.16621979092792 96285.6617412085 287.613012846068 0.007100447234505596 2.766513334596932e-05 4.64522001708545e-06 206408.3924573158 288970.5839249081 -123267.6258870678 2046336.878398084
4.988447782372995e-05 2.400575647692042e-06 1.166336623584438 96298.17673445426 287.6215820047832 0.007012487440915573 1.924253911348567e-05 9.650610254752223e-05 206414.4706044948 288979.1219347878 -110424.1309855351 2020313.12534886
4.99486348187584e-05 1.601755499517824e-06 1.166457718304774 96311.10658378559 287.6303374500104 0.006866636942640995 1.599286542714601e-05 0.0001805226458169162 206420.6372791737 288987.8019475737 -98291.26180442784 1977082.233295043
4.99871554050172e-05 8.012894392913777e-07 1.166581264551543 96324.27137773662 287.6391882015535 0.006665275231329213 1.736556157038577e-05 0.0002539739073943448 206426.8319280898 288996.5372932277 -86902.34512544316 1917473.48095808
5e-05 1.5e-21 1.166705400640856 96337.48611452989 287.6480407819464 0.006411836878776028 2.239492834216119e-05 0.0003144721637612369 206432.9938636303 289005.2404504958 -76253.57907001086 1842639.090366987
4.99871554050172e-05 -8.012894392913779e-07 1.166828325197605 96350.57134867545 287.6568035288579 0.006110596593025698 2.994386602992935e-05 0.0003602078946016718 206439.0648713062 289013.8268923002 -66277.54897400348 1754003.984958561
4.99486348187584e-05 -1.601755499517822e-06 1.166948349249905 96363.3580783458 287.665388340891 0.005766508701912995 3.873145221306926e-05 0.0003898645430078229 206444.9899946609 289022.2163717971 -56822.07959928826 1653210.225473314
4.988447782372995e-05 -2.400575647692043e-06 1.167063901247414 96375.68805758313 287.6737103614481 0.005384940280780454 4.741306381262494e-05 0.0004027950101614386 206450.7167653704 289030.3320617278 -47657.8132857512 1542054.08373741
4.979475034558114e-05 -3.196929042112649e-06 1.167173583585879 96387.41972158803 287.6816917212227 0.004971474298239083 5.464672150527067e-05 0.000398970590314851 206456.1974501048 289038.103875599 -38484.60311157111 1422428.259331463
4.967954458536126e-05 -3.989997375834478e-06 1.167276178749078 96398.42866455246 287.6892614331643 0.004531685265694164 5.917684149921859e-05 0.0003790017008875601 206461.388585607 289045.4679726111 -28935.40589821417 1296263.412698016
4.953897892477663e-05 -4.778965717534306e-06 1.16737066971176 96408.61016631353 287.6963578875397 0.004070971061759743 5.991674781725964e-05 0.0003441071099274939 206466.2525059953 289052.3690011924 -18585.95279888973 1165476.250199102
4.937319780454559e-05 -5.563023348907858e-06 1.16745623203661 96417.87872804966 287.7029293954089 0.003594400286715744 5.60210971635236e-05 0.0002960588942381159 206470.7575644857 289058.7604767318 -6964.90460442636 1031922.816753057
4.918237157597574e-05 -6.341364597737683e-06 1.167532228900381 96426.16825489314 287.7089359423913 0.003106615073580605 4.695419260800082e-05 0.000237122717753363 206474.8793356879 289064.6064873108 6431.841824388874 897360.7634773311
4.896669632591652e-05 -7.113189665775809e-06 1.167598190628115 96433.43066090849 287.7143500538719 0.00261177371649804 3.25462455298825e-05 0.0001699818062565195 206478.6012607818 289069.8825872463 22125.21407616794 763419.8197615021
4.872639367526672e-05 -7.877705450590516e-06 1.167653794743908 96439.63471277265 287.7191582480455 0.002113561687845077 1.303797912784177e-05 9.764515645574456e-05 206481.915782968 289074.577349652 40633.90224850446 631582.3054316492
4.846171055124401e-05 -8.634126360532688e-06 1.167698839339719 96444.76419744367 287.7233621212713 0.001615297190273797 -1.088984674747426e-05 2.335552302751287e-05 206484.8252552714 289078.6935858036 62453.08953705469 503172.3773487515
4.817291893365054e-05 -9.381675121984351e-06 1.167733217597253 96448.81625991655 287.7269796601049 0.001120340583529442 -3.810307812515332e-05 -4.952342321253023e-05 206487.3430267017 289082.2498079314 88029.93557016822 379354.9761892676
4.786031557539531e-05 -1.011958357805984e-05 1.1677568918423 96451.79965021681 287.7300464008834 0.0006347727843044611 -6.70345128449424e-05 -0.0001176108150780092 206489.4944086158 289085.2815284534 117735.5548955122 261142.8687622335
4.752422169756048e-05 -1.084709347793895e-05 1.16776986733134 96453.73292306181 287.7326165173952 0.0002808146713819226 -9.574661562102016e-05 -0.0001776406444526607 206491.3175623333 289087.8424598168 151821.2402025458 149411.2657271681
4.716498265932501e-05 -1.156345725602088e-05 1.167772162700258 96454.64221152996 287.7347634633113 0.000380470136515474 -0.0001219620378894171 -0.0002266404396488175 206492.8640232273 289090.0052230054 190346.7175452216 44917.51025510013
4.678296760308473e-05 -1.226793880009845e-05 1.16776377642675 96454.55845626704 287.7365799757739 0.0008222588669292165 -0.0001431869855673118 -0.0002620600490384206 206494.1987046368 289091.8613524823 233131.0228212973 -51680.49471997446
4.637856907513366e-05 -1.295981420776312e-05 1.167744670208786 96453.51628378312 287.7381788332466 0.001271605741240167 -0.0001569477073078834 -0.0002819417047586759 206495.4003762693 289093.5219921411 279726.1263458162 -139800.324249112
4.595220262229601e-05 -1.363837253026372e-05 1.167714761643156 96451.55358339223 287.7396934088096 0.001706336880672482 -0.0001610350708870223 -0.000285137494587917 206496.5619411122 289095.1183310451 329355.80576729 -218903.2527332352
4.550430636492389e-05 -1.430291650305424e-05 1.167673904711143 96448.709693126 287.7412770810758 0.00212066801878691 -0.0001538172450619157 -0.0002715061198585167 206497.7898698723 289096.800868766 380872.302532603 -288473.6890842072
4.503534054669892e-05 -1.49527632622804e-05 1.167621864598162 96445.02302383515 287.7431023683572 0.002509168612612107 -0.000134536016171305 -0.0002420571539219207 206499.2034671326 289098.7384329932 432760.4998765127 -348012.3671307307
4.454578706170074e-05 -1.558724504646834e-05 1.167558286144801 96440.52798014571 287.7453595378622 0.0028659662495297 -0.0001035235684664626 -0.0001989884655458352 206500.9338587186 289101.1167676574 483156.2332333853 -397045.2183780907
4.403614895922836e-05 -1.620570988269471e-05 1.167482638455502 96435.24924872775 287.7482532395649 0.003184829148525548 -6.225890239139331e-05 -0.0001455707262499051 206503.1217073773 289104.1352823267 529860.3859720945 -435155.2617582561
4.350694992688289e-05 -1.680752225653292e-05 1.167394139230577 96429.19378784507 287.7519972829107 0.003459431338210168 -1.323691684032569e-05 -8.585919260567509e-05 206505.9137483101 289108.0020883424 570326.2456755191 -462039.7201820619
4.295873375244319e-05 -1.739206376508716e-05 1.167291647945972 96422.33887301764 287.7568053281457 0.003683584320653013 4.036961524428451e-05 -2.426471537922414e-05 206509.4564880547 289112.9250255522 601595.0973018266 -477590.2695573064
4.239206376508715e-05 -1.795873375244319e-05 1.16717355411696 96414.61868457684 287.7628784432935 0.003851269625052973 9.518946513745186e-05 3.496668333860531e-05 206513.8876467554 289119.0995326872 620166.6081089755 -481984.4250795241
4.180752225653292e-05 -1.850694992688289e-05 1.167037661622628 96405.90883444315 287.7703874860879 0.003956338968467756 0.0001481980990036269 8.825263629008706e-05 206519.3237700503 289126.6912018067 621836.82196511 -475754.9987537526
4.120570988269471e-05 -1.903614895922836e-05 1.166881136977308 96396.016238768 287.7794556771922 0.003991930152052525 0.0001971752324534948 0.0001330672248991416 206525.8478689726 289135.8184156674 601519.4050635491 -459849.1419518263
4.058724504646834e-05 -1.954578706170075e-05 1.166700485541564 96384.66994140045 287.7901371166553 0.003949508958993824 0.0002410230692898585 0.0001681423968795948 206533.4940576884 289146.5308183954 553159.4422175642 -435632.1414834555