variables = x y Den P T Ma u v E H
zone i=129 and j=129
0.1 -0.000126 0.925614 76879.7 287.467 0.595962 199.972 21.1932 226566 309086
0.0990096 -0.000264097 0.986787 79875.6 282.684 0.584696 194.515 26.9515 222176 303323
0.0979775 -0.000406158 1.00752 76169 263.396 0.629891 203.038 27.7663 210116 285727
0.0969031 -0.000552237 0.99205 75715 265.794 0.649829 210.458 28.44 213311 289610
0.0957854 -0.000702312 0.980743 74181.4 263.49 0.669192 215.902 28.7761 212864 288502
0.0946239 -0.000856066 0.972707 73502.8 263.198 0.683392 220.379 28.9664 213602 289156
0.093418 -0.00101339 0.963822 72450.3 261.862 0.697102 224.313 29.0424 213548 288719
0.0921672 -0.0011742 0.957372 71859.6 261.452 0.708525 227.841 29.0784 214026 289079
0.0908711 -0.00133833 0.950126 71032.7 260.442 0.719372 230.953 29.0216 214036 288798
0.0895297 -0.00150568 0.944323 70483.7 259.998 0.729489 234.039 28.9759 214411 289046
0.0881428 -0.00167601 0.938161 69795.8 259.171 0.738597 236.65 28.8276 214446 288843
0.0867105 -0.00184915 0.932571 69260.5 258.708 0.748166 239.543 28.7361 214780 289045
0.0852332 -0.00202495 0.926934 68630.2 257.929 0.756313 241.853 28.4943 214785 288826
0.0837112 -0.00220258 0.921699 68140.9 257.531 0.76538 244.616 28.2808 215148 289075
0.0821451 -0.00238186 0.916627 67568.3 256.793 0.772452 246.586 27.9744 215105 288820
0.0805357 -0.00256287 0.911624 67106.4 256.426 0.781205 249.248 27.7885 215482 289092
0.0788842 -0.00274531 0.906585 66540.8 255.688 0.788121 251.152 27.4843 215430 288828
0.0771916 -0.00292887 0.901547 66074.2 255.305 0.796972 253.84 27.1717 215813 289100
0.0754593 -0.0031118 0.896959 65561.6 254.628 0.803152 255.54 26.6901 215754 288847
0.0736889 -0.00329475 0.892393 65138.3 254.272 0.811235 257.985 26.3777 216108 289099
0.0718822 -0.00347746 0.887702 64624.5 253.605 0.817606 259.73 25.9694 216077 288877
0.0700413 -0.00365948 0.882801 64161.5 253.181 0.826147 262.284 25.567 216420 289099
0.0681683 -0.0038394 0.878065 63652.2 252.531 0.832635 264.081 24.9551 216417 288908
0.0662654 -0.00401633 0.873458 63213.1 252.107 0.84057 266.44 24.4321 216720 289090
0.0643354 -0.0041908 0.868491 62689.7 251.454 0.84742 268.328 23.8913 216747 288929
0.062381 -0.00436222 0.86286 62142.9 250.883 0.85673 271.031 23.3862 217049 289067
0.0604049 -0.00452991 0.857033 61541.4 250.149 0.864994 273.326 22.6166 217132 288940
0.0584101 -0.00469084 0.851821 61033.9 249.6 0.873562 275.812 21.8047 217400 289050
0.0563997 -0.00484651 0.846333 60474.3 248.918 0.881361 277.965 21.0482 217493 288948
0.0543771 -0.00499627 0.840216 59875.2 248.243 0.891226 280.765 20.2891 217772 289033
0.0523455 -0.00513947 0.83369 59219 247.447 0.900785 283.403 19.3187 217929 288961
0.0503082 -0.0052737 0.828378 58700.2 246.851 0.909495 285.886 18.1435 218183 289044
0.0482685 -0.00539821 0.824146 58277.7 246.335 0.915799 287.648 16.9261 218297 289010
0.0462301 -0.00551372 0.819856 57860.2 245.848 0.922949 289.68 15.743 218514 289087
0.0441962 -0.00561955 0.813793 57260.7 245.114 0.932076 292.179 14.4883 218697 289060
0.0421703 -0.00571512 0.807894 56685.7 244.424 0.941626 294.84 12.8339 218959 289123
0.0401555 -0.00579551 0.803827 56287.2 243.935 0.947771 296.546 10.9781 219091 289115
0.0381554 -0.00586384 0.800395 55955.6 243.537 0.953344 298.105 9.28197 219252 289161
0.036173 -0.00591959 0.79551 55479.6 242.948 0.960748 300.108 7.47712 219414 289154
0.0342115 -0.00596223 0.78955 54902.4 242.234 0.969959 302.585 5.40679 219634 289169
0.0322739 -0.0059894 0.787657 54720.3 242.012 0.972799 303.369 2.13288 219701 289173
0.0303628 -0.00598948 0.767111 52726.1 239.357 1.0041 311.358 -0.238654 220280 288989
0.0284812 -0.0059866 0.730257 49215.8 234.742 1.0611 325.879 -1.54477 221583 288968
0.0266314 -0.00597212 0.723016 48541.5 233.87 1.07317 328.961 -4.59903 221963 289098
0.0248159 -0.00593534 0.733674 49549.6 235.267 1.0558 324.531 -8.44187 221537 289073
0.023037 -0.00587876 0.740327 50185.2 236.144 1.04517 321.74 -12.1269 221304 289091
0.0212967 -0.00580282 0.747017 50822.4 237 1.03453 318.884 -15.6994 221052 289085
0.0195968 -0.00570954 0.752055 51310.1 237.673 1.02652 316.661 -19.285 220891 289118
0.017939 -0.00559851 0.756006 51689.9 238.18 1.0203 314.81 -23.1416 220753 289125
0.0163247 -0.00546924 0.761561 52228.6 238.906 1.0117 312.27 -27.4474 220588 289168
0.0147555 -0.00531892 0.771552 53192.5 240.159 0.996371 307.832 -32.3219 220260 289200
0.0132331 -0.00514481 0.784107 54415.1 241.747 0.976843 302.176 -37.2284 219845 289241
0.0117583 -0.00494982 0.796469 55624.6 243.284 0.957642 296.44 -42.1441 219427 289264
0.0103321 -0.0047326 0.809618 56921.4 244.912 0.937455 290.221 -47.5012 219013 289318
0.00895594 -0.00449135 0.824446 58391.4 246.716 0.914693 283.001 -53.3618 218537 289359
0.00763106 -0.00422349 0.841581 60104 248.779 0.888462 274.439 -59.8259 218002 289416
0.0063593 -0.00392542 0.862957 62256.5 251.297 0.855958 263.595 -66.8928 217348 289485
0.00514324 -0.00359212 0.887638 64768.9 254.17 0.817874 250.355 -74.8309 216580 289542
0.003987 -0.00321614 0.921123 68216.2 257.933 0.766759 232.253 -83.1449 215605 289648
0.00289745 -0.0027868 0.960975 72394.6 262.393 0.703047 208.648 -91.9068 214404 289726
0.00188675 -0.00228861 1.01471 78146.4 268.157 0.614261 174.234 -99.6197 212894 289872
0.000989137 -0.00168445 1.08486 85913 275.746 0.483515 121.375 -99.9731 211094 290249
0.000283513 -0.000923748 1.1512 93685.2 283.397 0.310341 50.0948 -65.4284 209373 290725
3.41761e-06 2.30053e-05 1.16458 95140.9 284.554 0.284148 21.5286 33.5396 209106 290791
0.000312088 0.000960451 1.09373 86722.6 275.921 0.475056 83.1999 121.02 211167 290373
0.00102237 0.00171418 0.984841 74748.3 264.075 0.678522 169.314 138.422 214194 289999
0.00192256 0.00230782 0.895389 65487.6 254.647 0.813324 225.769 127.986 216663 289762
0.00292907 0.00280067 0.834227 59365.4 247.796 0.903219 260.767 114.256 218485 289618
0.00401159 0.00322513 0.786947 54740.1 242.259 0.97244 285.593 101.922 219906 289449
0.00515806 0.0035967 0.753205 51496 238.138 1.02322 303.23 90.4377 221006 289366
0.00636163 0.00392604 0.727818 49087.9 234.929 1.06224 316.302 80.2392 221867 289306
0.00761821 0.00422061 0.707355 47167 232.273 1.09429 326.592 71.2978 222583 289260
0.0089252 0.00448546 0.690788 45628.4 230.09 1.12056 334.77 63.3532 223180 289229
0.0102808 0.00472422 0.677045 44359.3 228.234 1.14278 341.473 56.238 223686 289202
0.0116836 0.00493951 0.665467 43299.7 226.66 1.16151 346.985 49.7893 224109 289174
0.0131325 0.00513315 0.655388 42379.6 225.256 1.1782 351.752 43.8554 224488 289150
0.0146262 0.00530616 0.643902 41340.5 223.648 1.19745 356.977 37.7865 224940 289141
0.0161643 0.00545388 0.633107 40370.7 222.131 1.21531 361.672 32.1789 225338 289103
0.0177447 0.00558344 0.625342 39677.5 221.029 1.22846 365.08 27.5673 225647 289095
0.0193662 0.00569547 0.618834 39095.8 220.079 1.23963 367.924 23.2245 225897 289073
0.0210274 0.00579048 0.612859 38567.1 219.22 1.24985 370.481 19.0712 226136 289065
0.0227268 0.00586831 0.605137 37882.6 218.073 1.26353 373.759 14.5515 226459 289059
0.0244628 0.00592411 0.597776 37240.4 217.02 1.2759 376.659 10.3532 226736 289034
0.0262333 0.00596457 0.591654 36701.8 216.093 1.28703 379.211 6.56894 227005 289037
0.0280364 0.00598592 0.584074 36045 214.98 1.30033 382.194 2.54775 227323 289035
0.0298699 0.00598872 0.582596 35913.8 214.743 1.30284 382.737 0.584369 227354 288999
0.0317316 0.00599157 0.581078 35781.7 214.509 1.30603 383.452 -1.85207 227466 289043
0.0336188 0.00597055 0.574837 35241.2 213.565 1.31704 385.799 -5.77957 227704 289010
0.0355292 0.00593462 0.570532 34874.2 212.937 1.32466 387.411 -8.51531 227895 289021
0.0374601 0.00588607 0.566888 34555.4 212.346 1.3315 388.807 -11.1066 228038 288994
0.0394085 0.00582376 0.563207 34246.4 211.823 1.33802 390.14 -13.8699 228217 289023
0.0413717 0.00574699 0.559773 33945.5 211.25 1.34459 391.434 -16.3106 228347 288989
0.0433466 0.00565966 0.557207 33734.7 210.906 1.34904 392.324 -18.3055 228483 289026
0.0453303 0.00556226 0.555739 33599.4 210.614 1.35216 392.867 -20.2432 228525 288984
0.0473198 0.00545492 0.553024 33379 210.261 1.35693 393.806 -22.438 228688 289045
0.0493116 0.00533543 0.550464 33149.5 209.785 1.36205 394.727 -24.4545 228757 288978
0.051303 0.00520816 0.548759 33018.5 209.607 1.36485 395.276 -26.0094 228885 289055
0.0532908 0.00507361 0.548058 32942.2 209.39 1.36675 395.522 -27.4879 228866 288973
0.0552719 0.00493234 0.546319 32813 209.234 1.36954 396.063 -29.1933 229017 289079
0.0572431 0.00478233 0.544568 32644.2 208.826 1.37349 396.696 -30.8251 229023 288969
0.0592016 0.00462701 0.543481 32574.1 208.797 1.37486 396.967 -32.0723 229149 289086
0.0611444 0.00446715 0.542704 32494.9 208.586 1.37689 397.258 -33.2505 229152 289029
0.0630689 0.00430333 0.542649 32533.7 208.858 1.37521 396.918 -34.5264 229255 289210
0.0649722 0.00413423 0.53619 31889 207.154 1.39463 400.708 -36.1577 229611 289077
0.0668517 0.00396209 0.615854 38680.9 217.034 1.24617 364.792 -33.805 223672 285974
0.0687052 0.00378782 0.786269 55156.8 242.949 0.9203 284.897 -27.0786 216099 285840
0.0705303 0.00361186 0.887191 65635.2 257.691 0.758559 242.939 -23.7842 214727 288699
0.0723247 0.00343346 0.894339 66377.3 258.543 0.747277 239.668 -24.1212 214555 288773
0.0740866 0.00325396 0.892856 66216 258.346 0.750912 240.688 -24.7766 214676 288837
0.0758142 0.00307432 0.894735 66409 258.557 0.747329 239.587 -25.16 214576 288797
0.0775059 0.00289488 0.895791 66513.1 258.656 0.747095 239.5 -25.7008 214640 288890
0.0791601 0.00271537 0.897582 66698.2 258.86 0.742747 238.139 -26.124 214477 288786
0.0807756 0.00253616 0.900185 66963.8 259.136 0.740476 237.482 -26.5761 214529 288916
0.0823513 0.00235833 0.902365 67189.6 259.385 0.735197 235.851 -26.8395 214336 288795
0.0838864 0.00218213 0.905484 67510.5 259.722 0.732064 234.948 -27.2038 214371 288926
0.08538 0.00200775 0.907936 67764.6 259.999 0.726309 233.166 -27.5005 214170 288805
0.0868315 0.00183472 0.911776 68163.7 260.423 0.721748 231.833 -27.8577 214167 288924
0.0882406 0.00166412 0.914794 68476.3 260.759 0.71522 229.833 -28.0387 213963 288817
0.0896069 0.0014961 0.919141 68932 261.245 0.709491 228.153 -28.2768 213924 288917
0.0909303 0.00133086 0.922374 69267.4 261.602 0.702577 226.033 -28.4254 213717 288812
0.0922109 0.00116859 0.927742 69834 262.205 0.695318 223.903 -28.5898 213661 288929
0.0934487 0.00100938 0.931023 70175.4 262.566 0.687695 221.551 -28.6953 213414 288787
0.0946441 0.000853401 0.937915 70907.6 263.336 0.678393 218.82 -28.7668 213351 288945
0.0957973 0.00070072 0.941275 71258.1 263.704 0.669422 216.027 -28.7979 213027 288726
0.0969089 0.000551447 0.951024 72302.4 264.788 0.656831 212.344 -28.696 212991 289001
0.0979795 0.000405897 0.95231 72431.7 264.909 0.644046 208.188 -28.4745 212232 288277
0.0990096 0.000264097 0.974675 74869 267.381 0.624487 202.636 -28.0762 212843 289597
0.1 0.000126 0.935029 69136.4 256.167 0.643147 102.647 -10.0853 205078 278613
0.1 -0.000126 0.888903 67824.4 263.852 0.627434 65.8473 15.1512 209965 285706
0.100792 -0.000550136 0.932969 73704.5 274.601 0.601715 198.255 14.7751 216891 295718
0.0994676 -0.00138825 0.982388 78894.9 280.692 0.598276 199.373 18.4121 221512 302088
0.0982811 -0.00178066 1.00659 76063.4 263.342 0.636473 206.11 19.9966 210480 286075
0.0971361 -0.00201964 0.989675 75517.8 265.77 0.653568 212.221 23.8291 213540 289832
0.0959885 -0.00220159 0.980595 74127.9 263.355 0.67233 217.314 25.104 212958 288556
0.0948146 -0.00236408 0.972101 73458.3 263.211 0.685227 221.309 26.2421 213736 289293
0.0936027 -0.00252186 0.964027 72451 261.815 0.699169 225.24 26.7578 213647 288804
0.0923481 -0.00268051 0.957411 71867.1 261.473 0.7097 228.455 27.1911 214122 289180
0.0910491 -0.00284182 0.950506 71055.6 260.425 0.720958 231.652 27.4039 214130 288888
0.0897049 -0.0030063 0.944635 70512.2 260.019 0.730449 234.525 27.5606 214495 289136
0.0883152 -0.0031739 0.93864 69829.5 259.166 0.73993 237.225 27.5825 214536 288932
0.0868802 -0.00334444 0.93302 69299.9 258.732 0.749039 239.964 27.6202 214863 289135
0.0854 -0.00351774 0.927534 68674.9 257.931 0.757469 242.343 27.4836 214871 288913
0.083875 -0.00369322 0.922243 68186.8 257.554 0.766191 244.988 27.386 215227 289161
0.082306 -0.00387062 0.91725 67614.4 256.794 0.773591 247.043 27.1656 215192 288908
0.0806938 -0.00404982 0.912195 67152.1 256.44 0.782078 249.62 27.0202 215562 289175
0.0790394 -0.00423046 0.907262 66591.4 255.692 0.789211 251.581 26.7684 215518 288917
0.0773436 -0.00441225 0.902234 66129 255.322 0.797775 254.178 26.4971 215891 289184
0.075608 -0.00459398 0.897681 65615.6 254.633 0.804213 255.943 26.1117 215843 288938
0.0738345 -0.00477579 0.893073 65190 254.28 0.812179 258.35 25.7986 216192 289186
0.0720248 -0.0049573 0.888449 64679.6 253.609 0.818702 260.137 25.4269 216170 288971
0.0701805 -0.0051381 0.883601 64223 253.194 0.827042 262.63 25.0219 216507 289189
0.0683036 -0.0053171 0.878921 63717 252.542 0.833645 264.453 24.4921 216511 289005
0.066397 -0.0054935 0.874295 63276.2 252.118 0.841551 266.8 23.9786 216812 289185
0.0644634 -0.00566737 0.869362 62754.3 251.461 0.848524 268.721 23.4641 216847 289031
0.0625051 -0.00583807 0.863828 62217 250.901 0.857678 271.381 22.929 217146 289169
0.0605244 -0.006005 0.858111 61624.7 250.172 0.865909 273.663 22.2165 217233 289047
0.0585247 -0.00616594 0.852897 61116.2 249.622 0.874497 276.15 21.4345 217500 289157
0.0565098 -0.00632151 0.847428 60556.9 248.936 0.882404 278.332 20.6918 217601 289060
0.0544823 -0.00647103 0.841414 59966.9 248.269 0.892161 281.104 19.9004 217878 289147
0.0524451 -0.00661387 0.83504 59324 247.486 0.901603 283.708 18.9477 218036 289079
0.0504015 -0.00674816 0.829794 58810.4 246.892 0.910267 286.176 17.7988 218289 289162
0.0483556 -0.00687312 0.825572 58387 246.37 0.916676 287.963 16.6136 218409 289132
0.0463107 -0.00698892 0.821342 57973.6 245.884 0.923825 289.995 15.4223 218627 289210
0.0442701 -0.0070948 0.815516 57395.3 245.171 0.932716 292.431 14.1586 218808 289186
0.0422359 -0.00719015 0.809849 56841.2 244.503 0.941991 295.014 12.5395 219063 289250
0.0402123 -0.00727151 0.805811 56443.1 244.008 0.948203 296.733 10.7686 219197 289242
0.0382037 -0.00734054 0.802415 56112.7 243.606 0.953848 298.311 9.09002 219360 289289
0.0362123 -0.00739661 0.797765 55656.7 243.035 0.961019 300.25 7.31909 219517 289283
0.0342404 -0.0074388 0.792394 55134.1 242.383 0.969455 302.523 5.2899 219721 289300
0.032289 -0.00746584 0.79049 54948.1 242.149 0.972367 303.319 2.44468 219784 289295
0.0303669 -0.00747045 0.769511 52907.7 239.432 1.00447 311.519 0.537533 220384 289115
0.0284773 -0.0074673 0.733605 49483.3 234.944 1.05997 325.673 -1.26775 221659 289103
0.0266145 -0.00745064 0.727457 48908.2 234.197 1.07036 328.325 -4.90986 221990 289218
0.0247828 -0.00741394 0.738181 49920.5 235.579 1.05309 323.905 -8.70859 221561 289186
0.0229872 -0.00735805 0.744825 50552.6 236.434 1.04265 321.154 -12.3213 221326 289197
0.0212301 -0.00728286 0.751648 51198.7 237.282 1.03201 318.289 -15.8522 221067 289181
0.0195129 -0.0071896 0.757018 51714.6 237.974 1.02367 315.974 -19.3921 220893 289205
0.0178364 -0.00707775 0.761616 52151.8 238.536 1.01666 313.908 -23.2481 220728 289202
0.016201 -0.00694652 0.768018 52767.8 239.339 1.00696 311.065 -27.5594 220528 289232
0.0146077 -0.00679383 0.778612 53786.1 240.633 0.990902 306.432 -32.2815 220170 289246
0.0130591 -0.00661773 0.791532 55040.5 242.227 0.971063 300.699 -36.9354 219734 289268
0.0115563 -0.00641912 0.804556 56310.1 243.801 0.951151 294.78 -41.6308 219287 289272
0.0100989 -0.00619609 0.818664 57696.7 245.498 0.929759 288.263 -46.6593 218830 289302
0.00868695 -0.00594619 0.834636 59275.7 247.385 0.905525 280.712 -51.9935 218302 289317
0.00732023 -0.00566549 0.853126 61119.9 249.549 0.877479 271.786 -57.6781 217708 289343
0.0059985 -0.00534804 0.875949 63416.2 252.167 0.84296 260.655 -63.5237 216988 289375
0.0047213 -0.00498468 0.902255 66093.9 255.15 0.802493 247.306 -69.4842 216146 289389
0.00348837 -0.00456057 0.936831 69657.4 258.951 0.749532 229.764 -74.8036 215109 289443
0.0023014 -0.00405076 0.977199 73891.2 263.356 0.684595 208.147 -78.5579 213851 289450
0.0011656 -0.00341298 1.02926 79458.9 268.817 0.597919 179.723 -78.2295 212351 289517
0.000115572 -0.00257208 1.09287 86446 275.46 0.479919 143.702 -67.3889 210628 289701
-0.000745428 -0.00142771 1.15049 93078.4 281.759 0.341061 107.083 -33.7277 209152 290034
-0.00109988 3.63284e-05 1.16219 94364.2 282.82 0.318017 95.7747 28.7645 208933 290119
-0.000711925 0.00148467 1.10217 87373 275.948 0.466876 126.908 86.6929 210582 289795
0.000154775 0.0026128 1.00738 76977.9 265.896 0.644089 177.067 111.87 213265 289593
0.0012061 0.00343939 0.923877 68247.9 257.129 0.775009 220.597 114.535 215687 289499
0.00233531 0.00406829 0.86191 61968 250.271 0.868816 253.009 108.259 217641 289484
0.00351415 0.00457156 0.812044 57036.8 244.546 0.94289 278.098 99.5189 219222 289422
0.00473635 0.00499063 0.774841 53428.5 240.113 0.998834 296.847 89.8042 220473 289400
0.00600035 0.0053498 0.746119 50686.2 236.583 1.04255 311.096 80.612 221465 289379
0.00730631 0.00566369 0.722956 48501.4 233.657 1.07833 322.386 72.177 222284 289358
0.00865464 0.00594139 0.704181 46751.7 231.246 1.10762 331.396 64.4673 222963 289345
0.0100456 0.00618882 0.688656 45316.2 229.208 1.13226 338.764 57.4822 223539 289335
0.0114794 0.00640988 0.675614 44122.6 227.485 1.15298 344.824 51.0803 224022 289324
0.0129561 0.00660698 0.664637 43122.4 226.004 1.17072 349.886 45.2795 224435 289312
0.0144765 0.00678202 0.652757 42048.7 224.383 1.19028 355.214 39.4894 224908 289319
0.0160384 0.006933 0.641055 40997.9 222.776 1.20937 360.262 33.7655 225347 289297
0.017639 0.00706435 0.632099 40200.9 221.544 1.22413 364.112 28.8404 225701 289297
0.0192789 0.00717698 0.624819 39553.2 220.517 1.23633 367.226 24.4116 225983 289285
0.0209575 0.00727166 0.618539 39000.6 219.644 1.24676 369.85 20.361 226233 289284
0.0226745 0.00734867 0.610801 38316.5 218.521 1.26023 373.101 16.087 226559 289288
0.0244269 0.0074051 0.603002 37637.7 217.431 1.27314 376.154 11.7769 226857 289273
0.0262122 0.00744502 0.596684 37084.3 216.501 1.28429 378.736 7.9835 227128 289276
0.0280295 0.00746705 0.588455 36371.9 215.31 1.29861 381.967 3.6348 227478 289285
0.0298721 0.00747168 0.585594 36124.3 214.895 1.30321 382.982 0.916968 227558 289246
0.0317435 0.00747047 0.584384 36021.3 214.725 1.30559 383.523 -1.03897 227645 289284
0.0336437 0.0074491 0.578683 35528.4 213.872 1.31559 385.666 -4.52335 227867 289261
0.0355644 0.00741329 0.573846 35117.6 213.183 1.32394 387.443 -7.57932 228077 289273
0.0375048 0.007364 0.569985 34781.7 212.574 1.33097 388.883 -10.247 228223 289244
0.0394628 0.00730106 0.566215 34466.6 212.051 1.3375 390.228 -13.0204 228404 289275
0.0414345 0.00722444 0.562466 34140.1 211.443 1.34448 391.611 -15.5813 228544 289240
0.0434167 0.00713688 0.559577 33903.4 211.062 1.34934 392.581 -17.803 228688 289275
0.0454074 0.00703889 0.557994 33759.6 210.763 1.35253 393.138 -19.7542 228728 289230
0.0474041 0.00693088 0.555334 33545.2 210.428 1.35706 394.038 -21.7816 228884 289290
0.0494027 0.00681175 0.552643 33305.4 209.941 1.36232 394.984 -23.9132 228957 289222
0.0513996 0.00668457 0.550627 33149.4 209.724 1.36554 395.606 -25.7023 229091 289294
0.0533926 0.00654985 0.549811 33064.5 209.497 1.36753 395.868 -27.1986 229072 289210
0.0553793 0.00640823 0.548152 32942.9 209.359 1.37006 396.366 -28.7505 229213 289312
0.0573558 0.00625877 0.546336 32769.6 208.95 1.37404 397.002 -30.4397 229222 289203
0.0593186 0.00610392 0.545033 32681.7 208.889 1.3757 397.317 -31.8683 229347 289311
0.0612656 0.00594433 0.544132 32593.4 208.669 1.37784 397.625 -33.1144 229353 289254
0.0631944 0.00578064 0.544098 32634.1 208.944 1.37603 397.255 -34.3461 229444 289424
0.0651019 0.00561232 0.537319 31964.8 207.208 1.39601 401.182 -35.8909 229830 289311
0.066985 0.00544104 0.616626 38722.4 217.004 1.24881 365.616 -33.208 223926 286219
0.0688418 0.0052675 0.787354 55218.9 242.882 0.923727 285.957 -26.8051 216342 286064
0.0706705 0.00509219 0.888353 65704.6 257.627 0.761845 243.96 -23.8929 214933 288887
0.0724685 0.00491491 0.89533 66430.6 258.464 0.750856 240.78 -24.2163 214769 288964
0.0742335 0.00473673 0.893756 66263.1 258.269 0.754232 241.722 -24.822 214872 289011
0.075964 0.00455833 0.89557 66450.8 258.479 0.750706 240.647 -25.132 214773 288972
0.0776588 0.0043801 0.89663 66558.1 258.589 0.750111 240.463 -25.5448 214818 289048
0.0793162 0.00420209 0.898419 66743.8 258.796 0.745874 239.148 -25.8937 214665 288955
0.0809347 0.00402473 0.900951 67004.8 259.075 0.743295 238.406 -26.2318 214694 289064
0.0825132 0.00384876 0.903118 67229.8 259.324 0.738242 236.856 -26.4477 214516 288958
0.084051 0.00367443 0.906213 67551.1 259.669 0.734688 235.831 -26.7233 214525 289065
0.0855476 0.00350201 0.908683 67807.1 259.948 0.729186 234.148 -26.9037 214342 288963
0.087002 0.00333142 0.912458 68202.2 260.375 0.724253 232.709 -27.1521 214313 289056
0.0884138 0.00316337 0.915441 68511.3 260.708 0.718114 230.852 -27.2112 214132 288971
0.0897828 0.00299801 0.91974 68964.5 261.198 0.711946 229.045 -27.3428 214063 289043
0.091109 0.00283554 0.922952 69297.7 261.553 0.705519 227.106 -27.3275 213886 288967
0.0923926 0.00267595 0.92821 69855.7 262.154 0.697767 224.836 -27.332 213793 289047
0.0936341 0.00251875 0.93152 70199.9 262.517 0.690752 222.721 -27.1572 213587 288945
0.0948354 0.0023621 0.938113 70904.3 263.27 0.681037 219.872 -27.0408 213480 289054
0.0960012 0.00220043 0.941674 71275 263.656 0.672595 217.344 -26.4483 213202 288887
0.0971428 0.00201899 0.95057 72236.5 264.679 0.659983 213.648 -26.1877 213118 289097
0.0982838 0.00178031 0.953308 72512.6 264.938 0.64736 209.864 -24.081 212468 288522
0.0994681 0.00138807 0.970495 74442.7 267.057 0.629351 204.387 -26.2171 212909 289571
0.100792 0.000549931 0.961599 70943.2 256.284 0.627595 199.981 -11.2786 204223 277792
0.100792 -0.000550136 0.932968 73704.4 274.601 0.601716 198.255 14.7752 216891 295718
0.101436 -0.000813139 0.958658 74772.4 272.433 0.603984 199.01 10.6299 215406 293611
0.100106 -0.00219446 0.975153 77656.4 278.406 0.617208 205.496 12.3208 220992 300911
0.0988017 -0.00293432 1.00223 75695.9 263.226 0.647985 210.073 16.2629 211128 286690
0.0975325 -0.00338303 0.986295 75140.4 265.37 0.661635 215.041 20.3971 213775 289952
0.0962948 -0.00368899 0.979192 73959.3 263.137 0.678405 219.503 22.1481 213190 288726
0.0950629 -0.00391953 0.970908 73314.8 263.027 0.690004 223.045 23.823 213922 289426
0.0938171 -0.00411081 0.963757 72403.3 261.718 0.703275 226.77 24.5626 213849 288977
0.0925437 -0.00428301 0.957319 71834.8 261.383 0.712824 229.623 25.4017 214270 289303
0.0912343 -0.00444731 0.950851 71070.5 260.385 0.72403 232.812 25.7485 214311 289058
0.089884 -0.00460964 0.945156 70541 259.983 0.732699 235.386 26.1698 214627 289257
0.0884903 -0.00477291 0.939353 69877.8 259.149 0.742401 238.156 26.2948 214697 289089
0.087052 -0.00493832 0.933884 69363.2 258.73 0.750815 240.655 26.5001 214991 289262
0.0855689 -0.00510634 0.92856 68752.4 257.937 0.759516 243.117 26.4477 215025 289069
0.0840411 -0.0052769 0.923327 68269.3 257.563 0.767665 245.563 26.4708 215345 289281
0.0824694 -0.00544978 0.9184 67701.6 256.803 0.775503 247.751 26.3236 215344 289062
0.0808545 -0.00562468 0.913371 67240.4 256.447 0.783493 250.158 26.235 215677 289293
0.0791972 -0.0058012 0.908558 66690.7 255.708 0.790943 252.22 26.0367 215666 289070
0.0774984 -0.00597908 0.903626 66236.2 255.343 0.79895 254.634 25.809 216001 289300
0.0757598 -0.00615758 0.899098 65724.4 254.653 0.8058 256.523 25.5013 215987 289088
0.0739832 -0.00633644 0.894484 65296.4 254.293 0.813451 258.823 25.1966 216308 289305
0.0721703 -0.00651507 0.889942 64793.5 253.629 0.820225 260.688 24.8662 216312 289119
0.0703226 -0.00669307 0.88522 64347.9 253.223 0.82812 263.042 24.4643 216621 289311
0.0684422 -0.00686971 0.880616 63848.7 252.577 0.834913 264.921 24.0029 216647 289151
0.066532 -0.00704428 0.875986 63406.1 252.148 0.842653 267.211 23.4969 216931 289313
0.0645946 -0.00721638 0.871099 62887.9 251.494 0.849805 269.186 23.0117 216984 289178
0.0626323 -0.00738524 0.865748 62367.6 250.95 0.858574 271.733 22.4577 217266 289304
0.0606473 -0.00755042 0.860218 61792.9 250.241 0.866701 273.986 21.7956 217360 289195
0.058643 -0.00771046 0.855024 61285.2 249.689 0.875191 276.438 21.0326 217620 289295
0.0566233 -0.00786524 0.849601 60729.1 249.005 0.88319 278.649 20.3043 217730 289210
0.0545908 -0.00801383 0.843787 60157.6 248.359 0.892613 281.327 19.4901 217997 289291
0.0525481 -0.00815567 0.837698 59541.7 247.606 0.901733 283.844 18.5559 218153 289230
0.0504985 -0.00828952 0.832602 59041.4 247.026 0.910149 286.239 17.4255 218397 289308
0.0484463 -0.00841455 0.828411 58619.6 246.504 0.916608 288.04 16.2662 218521 289282
0.0463948 -0.00853033 0.82429 58215.4 246.027 0.923601 290.027 15.0705 218733 289357
0.0443468 -0.0086359 0.818881 57676.7 245.361 0.931936 292.315 13.8099 218905 289338
0.0423047 -0.00873082 0.813623 57160.9 244.738 0.940577 294.726 12.2309 219143 289397
0.0402727 -0.00881296 0.809629 56765.4 244.244 0.946767 296.435 10.5318 219275 289388
0.038255 -0.00888268 0.806283 56438.1 243.843 0.952373 298.001 8.87365 219436 289434
0.0362537 -0.00893891 0.802015 56017.7 243.314 0.958987 299.792 7.1472 219579 289425
0.0342712 -0.00898069 0.79753 55579.5 242.768 0.966097 301.716 5.20311 219753 289442
0.0323085 -0.00900841 0.795325 55362.8 242.493 0.969408 302.61 2.7689 219817 289427
0.030375 -0.00901774 0.77393 53278.1 239.735 1.00219 311.009 1.22722 220443 289261
0.0284733 -0.00901467 0.74052 50085.4 235.59 1.05358 324.158 -1.03599 221628 289256
0.026597 -0.00899564 0.73626 49685.3 235.073 1.06085 326.009 -5.14203 221863 289343
0.0247504 -0.00895859 0.746706 50673.7 236.402 1.04414 321.706 -8.85129 221444 289305
0.0229384 -0.00890349 0.753293 51301.7 237.239 1.03383 318.974 -12.379 221208 289310
0.0211637 -0.00882928 0.760325 51968.3 238.099 1.02292 316.018 -15.8532 220934 289283
0.0194276 -0.00873599 0.766318 52545 238.86 1.01361 313.442 -19.3273 220732 289299
0.0177305 -0.00862273 0.772141 53100.3 239.561 1.0047 310.873 -23.1192 220514 289283
0.0160727 -0.00848859 0.780002 53859.2 240.534 0.992698 307.415 -27.3025 220252 289300
0.0144544 -0.00833217 0.791503 54969.9 241.922 0.975164 302.38 -31.7456 219846 289293
0.0128779 -0.00815165 0.804942 56281.1 243.559 0.954479 296.411 -36.0643 219381 289297
0.0113436 -0.00794564 0.81898 57656.8 245.232 0.932968 290.066 -40.3872 218888 289284
0.0098504 -0.00771067 0.834481 59189.4 247.073 0.909274 282.955 -44.8647 218366 289291
0.00839676 -0.00744234 0.852011 60934.1 249.118 0.882442 274.769 -49.4092 217769 289281
0.00698065 -0.00713367 0.872145 62957.5 251.446 0.851532 265.204 -53.9782 217100 289280
0.00559955 -0.00677413 0.89634 65412.5 254.19 0.814352 253.613 -58.2563 216310 289278
0.00425072 -0.00634772 0.923835 68236.3 257.273 0.771275 240.055 -61.9848 215408 289260
0.00293232 -0.00583013 0.958006 71790.9 261.001 0.717561 223.198 -64.3494 214350 289273
0.00164769 -0.0051837 0.996361 75846.3 265.144 0.654066 203.496 -64.2179 213118 289230
0.000410108 -0.00435171 1.04216 80775.5 269.932 0.57558 179.763 -59.5671 211773 289260
-0.000727464 -0.00324933 1.09223 86250 275.039 0.482156 153.166 -46.1404 210338 289290
-0.00164071 -0.0017794 1.1332 90875.1 279.315 0.394017 129.498 -18.7405 209274 289454
-0.00201238 4.48323e-05 1.14041 91693.5 280.065 0.379136 122.888 22.9896 209150 289545
-0.00160676 0.00185166 1.09835 86941.6 275.654 0.469683 142.432 63.1202 210249 289378
-0.000686003 0.00330132 1.02844 79287.8 268.413 0.601081 176.901 86.952 212292 289342
0.000452942 0.00438655 0.958827 71874 261.015 0.717348 211.455 95.7071 214401 289328
0.00168316 0.0052068 0.900553 65838 254.561 0.810152 240.524 95.8704 216326 289401
0.00295878 0.00584473 0.850446 60778.3 248.86 0.887174 264.89 91.9632 217995 289433
0.0042654 0.00635624 0.810364 56814.5 244.152 0.948579 284.393 85.6116 219388 289474
0.00560022 0.00677799 0.77778 53649.1 240.22 0.998557 300.038 78.5702 220542 289500
0.00696495 0.00713386 0.750985 51082.3 236.9 1.04003 312.768 71.43 221514 289518
0.00836224 0.00743957 0.728825 48988 234.106 1.07456 323.163 64.4827 222331 289533
0.00979458 0.00770551 0.710314 47255.4 231.72 1.10381 331.767 57.95 223030 289548
0.0112641 0.00793856 0.694644 45805.1 229.682 1.12867 338.933 51.8057 223628 289560
0.0127721 0.00814303 0.681819 44625.6 227.984 1.14923 344.755 46.1782 224119 289564
0.0143202 0.00832268 0.669235 43478.4 226.297 1.16977 350.376 40.7394 224627 289587
0.0159068 0.00847827 0.656314 42307.9 224.542 1.19086 355.967 35.2062 225130 289587
0.0175299 0.00861258 0.645306 41321 223.051 1.20884 360.649 30.1166 225568 289597
0.0191903 0.00872638 0.636292 40514.2 221.798 1.22385 364.48 25.5355 225928 289597
0.0208878 0.00882077 0.629111 39879.3 220.817 1.2356 367.442 21.4891 226211 289599
0.0226224 0.00889688 0.621422 39196.1 219.716 1.24889 370.683 17.4752 226541 289613
0.0243911 0.0089537 0.612992 38458.4 218.548 1.26285 374.018 13.1759 226877 289613
0.0261914 0.00899355 0.606416 37880.7 217.6 1.27415 376.661 9.44482 227146 289611
0.0280221 0.00901667 0.597532 37107.8 216.323 1.28963 380.195 5.07792 227539 289637
0.0298769 0.00902263 0.591767 36608.3 215.502 1.2991 382.307 1.52157 227736 289598
0.0317597 0.00901747 0.590195 36475 215.289 1.30184 382.925 -0.464097 227820 289621
0.0336709 0.00899492 0.585813 36093.9 214.632 1.30958 384.595 -3.35139 227995 289607
0.0356022 0.0089589 0.580488 35641.2 213.884 1.31867 386.553 -6.47471 228229 289626
0.0375526 0.00890888 0.576108 35260.5 213.209 1.32646 388.164 -9.32696 228391 289594